 written on  4Dec2017 at 14:45:21 
          16
          95
    4    2    2    2    4    2    1    1    1    2    4    2    2    2    4
    2    1    1    1    2    2    1    1    1    2    2    1    1    1    2
    2    1    1    1    2    4    2    2    2    4    2    1    1    1    2
    2    1    1    1    2    2    1    1    1    2    4    2    2    2    4
    2    1    1    1    2    2    1    1    1    2    2    1    1    1    2
    2    1    1    1    2    4    2    2    2    4    2    1    1    1    2
    4    2    2    2    4
   -2   -2   -2    1    1    0.000257    0.000000
   -2   -2   -2    2    1   -0.000185    0.000000
   -2   -2   -2    3    1    0.000107    0.000000
   -2   -2   -2    4    1   -0.000110   -0.000000
   -2   -2   -2    5    1    0.000191    0.000000
   -2   -2   -2    6    1   -0.000871    0.000000
   -2   -2   -2    7    1    0.000311   -0.000000
   -2   -2   -2    8    1   -0.000179   -0.000000
   -2   -2   -2    9    1   -0.000377   -0.000000
   -2   -2   -2   10    1    0.000654   -0.000000
   -2   -2   -2   11    1    0.000325   -0.000000
   -2   -2   -2   12    1    0.000235   -0.000000
   -2   -2   -2   13    1   -0.000249    0.000000
   -2   -2   -2   14    1    0.001813   -0.000000
   -2   -2   -2   15    1    0.002526   -0.000000
   -2   -2   -2   16    1    0.000296   -0.000000
   -2   -2   -2    1    2   -0.000185   -0.000000
   -2   -2   -2    2    2    0.000014    0.000000
   -2   -2   -2    3    2    0.000868   -0.000000
   -2   -2   -2    4    2   -0.000335    0.000000
   -2   -2   -2    5    2    0.000029    0.000000
   -2   -2   -2    6    2   -0.000311    0.000000
   -2   -2   -2    7    2   -0.000345    0.000000
   -2   -2   -2    8    2   -0.000981    0.000000
   -2   -2   -2    9    2   -0.001081    0.000000
   -2   -2   -2   10    2    0.000307   -0.000000
   -2   -2   -2   11    2    0.000620   -0.000000
   -2   -2   -2   12    2   -0.000357   -0.000000
   -2   -2   -2   13    2    0.000844    0.000001
   -2   -2   -2   14    2   -0.002369    0.000000
   -2   -2   -2   15    2   -0.000639   -0.000000
   -2   -2   -2   16    2   -0.000916    0.000000
   -2   -2   -2    1    3    0.000107   -0.000000
   -2   -2   -2    2    3    0.000868    0.000000
   -2   -2   -2    3    3    0.001014    0.000000
   -2   -2   -2    4    3   -0.000357   -0.000000
   -2   -2   -2    5    3   -0.000335    0.000000
   -2   -2   -2    6    3    0.000179    0.000000
   -2   -2   -2    7    3   -0.000981    0.000000
   -2   -2   -2    8    3   -0.001477   -0.000000
   -2   -2   -2    9    3   -0.000941    0.000000
   -2   -2   -2   10    3   -0.001081   -0.000000
   -2   -2   -2   11    3   -0.000621    0.000000
   -2   -2   -2   12    3   -0.001420    0.000001
   -2   -2   -2   13    3    0.001351    0.000001
   -2   -2   -2   14    3   -0.006676    0.000000
   -2   -2   -2   15    3   -0.005616   -0.000000
   -2   -2   -2   16    3   -0.000224    0.000000
   -2   -2   -2    1    4   -0.000110    0.000000
   -2   -2   -2    2    4   -0.000335   -0.000000
   -2   -2   -2    3    4   -0.000357    0.000000
   -2   -2   -2    4    4    0.000032   -0.000000
   -2   -2   -2    5    4   -0.000057    0.000000
   -2   -2   -2    6    4   -0.000377   -0.000000
   -2   -2   -2    7    4    0.001081   -0.000000
   -2   -2   -2    8    4    0.000941   -0.000000
   -2   -2   -2    9    4    0.000432   -0.000000
   -2   -2   -2   10    4    0.000837    0.000000
   -2   -2   -2   11    4    0.001361   -0.000001
   -2   -2   -2   12    4    0.000684   -0.000000
   -2   -2   -2   13    4   -0.000847   -0.000000
   -2   -2   -2   14    4    0.006004   -0.000000
   -2   -2   -2   15    4    0.004863    0.000000
   -2   -2   -2   16    4    0.000121   -0.000000
   -2   -2   -2    1    5    0.000191   -0.000000
   -2   -2   -2    2    5    0.000029   -0.000000
   -2   -2   -2    3    5   -0.000335   -0.000000
   -2   -2   -2    4    5   -0.000057   -0.000000
   -2   -2   -2    5    5    0.000097    0.000000
   -2   -2   -2    6    5    0.000654   -0.000000
   -2   -2   -2    7    5   -0.000307    0.000000
   -2   -2   -2    8    5    0.001081    0.000000
   -2   -2   -2    9    5    0.000837    0.000000
   -2   -2   -2   10    5   -0.000535    0.000000
   -2   -2   -2   11    5    0.000089    0.000001
   -2   -2   -2   12    5    0.000103   -0.000000
   -2   -2   -2   13    5   -0.000045   -0.000000
   -2   -2   -2   14    5   -0.000558   -0.000000
   -2   -2   -2   15    5   -0.000324    0.000000
   -2   -2   -2   16    5   -0.001313    0.000000
   -2   -2   -2    1    6   -0.000871   -0.000000
   -2   -2   -2    2    6   -0.000311   -0.000000
   -2   -2   -2    3    6    0.000179   -0.000000
   -2   -2   -2    4    6   -0.000377    0.000000
   -2   -2   -2    5    6    0.000654    0.000000
   -2   -2   -2    6    6    0.000257   -0.000000
   -2   -2   -2    7    6    0.000185    0.000000
   -2   -2   -2    8    6   -0.000107   -0.000000
   -2   -2   -2    9    6   -0.000110   -0.000000
   -2   -2   -2   10    6    0.000191   -0.000000
   -2   -2   -2   11    6   -0.000325    0.000000
   -2   -2   -2   12    6    0.000235   -0.000001
   -2   -2   -2   13    6   -0.000249    0.000000
   -2   -2   -2   14    6    0.000325    0.000000
   -2   -2   -2   15    6   -0.000332   -0.000001
   -2   -2   -2   16    6    0.000079    0.000000
   -2   -2   -2    1    7    0.000311    0.000000
   -2   -2   -2    2    7   -0.000345   -0.000000
   -2   -2   -2    3    7   -0.000981   -0.000000
   -2   -2   -2    4    7    0.001081    0.000000
   -2   -2   -2    5    7   -0.000307   -0.000000
   -2   -2   -2    6    7    0.000185   -0.000000
   -2   -2   -2    7    7    0.000014    0.000000
   -2   -2   -2    8    7    0.000868    0.000000
   -2   -2   -2    9    7    0.000335   -0.000000
   -2   -2   -2   10    7   -0.000029    0.000000
   -2   -2   -2   11    7    0.000620   -0.000001
   -2   -2   -2   12    7    0.000357    0.000000
   -2   -2   -2   13    7   -0.000844   -0.000001
   -2   -2   -2   14    7   -0.000848   -0.000001
   -2   -2   -2   15    7    0.001173    0.000000
   -2   -2   -2   16    7   -0.000537   -0.000001
   -2   -2   -2    1    8   -0.000179    0.000000
   -2   -2   -2    2    8   -0.000981   -0.000000
   -2   -2   -2    3    8   -0.001477    0.000000
   -2   -2   -2    4    8    0.000941    0.000000
   -2   -2   -2    5    8    0.001081   -0.000000
   -2   -2   -2    6    8   -0.000107    0.000000
   -2   -2   -2    7    8    0.000868   -0.000000
   -2   -2   -2    8    8    0.001014    0.000000
   -2   -2   -2    9    8    0.000357    0.000000
   -2   -2   -2   10    8    0.000335    0.000000
   -2   -2   -2   11    8   -0.000621    0.000000
   -2   -2   -2   12    8    0.001420   -0.000001
   -2   -2   -2   13    8   -0.001351   -0.000001
   -2   -2   -2   14    8    0.000226    0.000000
   -2   -2   -2   15    8    0.001727   -0.000001
   -2   -2   -2   16    8   -0.000179   -0.000001
   -2   -2   -2    1    9   -0.000377    0.000000
   -2   -2   -2    2    9   -0.001081   -0.000000
   -2   -2   -2    3    9   -0.000941   -0.000000
   -2   -2   -2    4    9    0.000432    0.000000
   -2   -2   -2    5    9    0.000837   -0.000000
   -2   -2   -2    6    9   -0.000110    0.000000
   -2   -2   -2    7    9    0.000335    0.000000
   -2   -2   -2    8    9    0.000357   -0.000000
   -2   -2   -2    9    9    0.000032    0.000000
   -2   -2   -2   10    9   -0.000057   -0.000000
   -2   -2   -2   11    9   -0.001361    0.000000
   -2   -2   -2   12    9    0.000684    0.000000
   -2   -2   -2   13    9   -0.000847   -0.000000
   -2   -2   -2   14    9   -0.000759    0.000001
   -2   -2   -2   15    9    0.000615   -0.000000
   -2   -2   -2   16    9   -0.000143   -0.000000
   -2   -2   -2    1   10    0.000654    0.000000
   -2   -2   -2    2   10    0.000307    0.000000
   -2   -2   -2    3   10   -0.001081    0.000000
   -2   -2   -2    4   10    0.000837   -0.000000
   -2   -2   -2    5   10   -0.000535   -0.000000
   -2   -2   -2    6   10    0.000191    0.000000
   -2   -2   -2    7   10   -0.000029   -0.000000
   -2   -2   -2    8   10    0.000335   -0.000000
   -2   -2   -2    9   10   -0.000057    0.000000
   -2   -2   -2   10   10    0.000097   -0.000000
   -2   -2   -2   11   10   -0.000089   -0.000001
   -2   -2   -2   12   10    0.000103   -0.000000
   -2   -2   -2   13   10   -0.000045    0.000000
   -2   -2   -2   14   10   -0.001135   -0.000001
   -2   -2   -2   15   10    0.000886   -0.000000
   -2   -2   -2   16   10   -0.000113   -0.000000
   -2   -2   -2    1   11    0.000325    0.000000
   -2   -2   -2    2   11    0.000620    0.000000
   -2   -2   -2    3   11   -0.000621   -0.000000
   -2   -2   -2    4   11    0.001361    0.000001
   -2   -2   -2    5   11    0.000089   -0.000001
   -2   -2   -2    6   11   -0.000325   -0.000000
   -2   -2   -2    7   11    0.000620    0.000001
   -2   -2   -2    8   11   -0.000621   -0.000000
   -2   -2   -2    9   11   -0.001361   -0.000000
   -2   -2   -2   10   11   -0.000089    0.000001
   -2   -2   -2   11   11   -0.000399    0.000000
   -2   -2   -2   12   11   -0.000000   -0.000000
   -2   -2   -2   13   11    0.000000   -0.000000
   -2   -2   -2   14   11   -0.003058    0.000001
   -2   -2   -2   15   11   -0.000153   -0.000001
   -2   -2   -2   16   11    0.000089    0.000001
   -2   -2   -2    1   12    0.000235    0.000000
   -2   -2   -2    2   12   -0.000357    0.000000
   -2   -2   -2    3   12   -0.001420   -0.000001
   -2   -2   -2    4   12    0.000684    0.000000
   -2   -2   -2    5   12    0.000103    0.000000
   -2   -2   -2    6   12    0.000235    0.000001
   -2   -2   -2    7   12    0.000357   -0.000000
   -2   -2   -2    8   12    0.001420    0.000001
   -2   -2   -2    9   12    0.000684   -0.000000
   -2   -2   -2   10   12    0.000103    0.000000
   -2   -2   -2   11   12   -0.000000    0.000000
   -2   -2   -2   12   12   -0.000211   -0.000000
   -2   -2   -2   13   12    0.000263   -0.000000
   -2   -2   -2   14   12   -0.000153   -0.000001
   -2   -2   -2   15   12    0.000979   -0.000000
   -2   -2   -2   16   12   -0.001076    0.000001
   -2   -2   -2    1   13   -0.000249   -0.000000
   -2   -2   -2    2   13    0.000844   -0.000001
   -2   -2   -2    3   13    0.001351   -0.000001
   -2   -2   -2    4   13   -0.000847    0.000000
   -2   -2   -2    5   13   -0.000045    0.000000
   -2   -2   -2    6   13   -0.000249   -0.000000
   -2   -2   -2    7   13   -0.000844    0.000001
   -2   -2   -2    8   13   -0.001351    0.000001
   -2   -2   -2    9   13   -0.000847    0.000000
   -2   -2   -2   10   13   -0.000045   -0.000000
   -2   -2   -2   11   13    0.000000    0.000000
   -2   -2   -2   12   13    0.000263    0.000000
   -2   -2   -2   13   13    0.000095   -0.000000
   -2   -2   -2   14   13    0.000089    0.000001
   -2   -2   -2   15   13   -0.001076    0.000001
   -2   -2   -2   16   13   -0.000264    0.000001
   -2   -2   -2    1   14    0.001813    0.000000
   -2   -2   -2    2   14   -0.002369   -0.000000
   -2   -2   -2    3   14   -0.006676   -0.000000
   -2   -2   -2    4   14    0.006004    0.000000
   -2   -2   -2    5   14   -0.000558    0.000000
   -2   -2   -2    6   14    0.000325   -0.000000
   -2   -2   -2    7   14   -0.000848    0.000001
   -2   -2   -2    8   14    0.000226   -0.000000
   -2   -2   -2    9   14   -0.000759   -0.000001
   -2   -2   -2   10   14   -0.001135    0.000001
   -2   -2   -2   11   14   -0.003058   -0.000001
   -2   -2   -2   12   14   -0.000153    0.000001
   -2   -2   -2   13   14    0.000089   -0.000001
   -2   -2   -2   14   14   -0.000399   -0.000000
   -2   -2   -2   15   14    0.000000    0.000000
   -2   -2   -2   16   14   -0.000000    0.000000
   -2   -2   -2    1   15    0.002526    0.000000
   -2   -2   -2    2   15   -0.000639    0.000000
   -2   -2   -2    3   15   -0.005616    0.000000
   -2   -2   -2    4   15    0.004863   -0.000000
   -2   -2   -2    5   15   -0.000324   -0.000000
   -2   -2   -2    6   15   -0.000332    0.000001
   -2   -2   -2    7   15    0.001173   -0.000000
   -2   -2   -2    8   15    0.001727    0.000001
   -2   -2   -2    9   15    0.000615    0.000000
   -2   -2   -2   10   15    0.000886    0.000000
   -2   -2   -2   11   15   -0.000153    0.000001
   -2   -2   -2   12   15    0.000979    0.000000
   -2   -2   -2   13   15   -0.001076   -0.000001
   -2   -2   -2   14   15    0.000000   -0.000000
   -2   -2   -2   15   15   -0.000211    0.000000
   -2   -2   -2   16   15    0.000263   -0.000000
   -2   -2   -2    1   16    0.000296    0.000000
   -2   -2   -2    2   16   -0.000916   -0.000000
   -2   -2   -2    3   16   -0.000224   -0.000000
   -2   -2   -2    4   16    0.000121    0.000000
   -2   -2   -2    5   16   -0.001313   -0.000000
   -2   -2   -2    6   16    0.000079   -0.000000
   -2   -2   -2    7   16   -0.000537    0.000001
   -2   -2   -2    8   16   -0.000179    0.000001
   -2   -2   -2    9   16   -0.000143    0.000000
   -2   -2   -2   10   16   -0.000113    0.000000
   -2   -2   -2   11   16    0.000089   -0.000001
   -2   -2   -2   12   16   -0.001076   -0.000001
   -2   -2   -2   13   16   -0.000264   -0.000001
   -2   -2   -2   14   16   -0.000000   -0.000000
   -2   -2   -2   15   16    0.000263    0.000000
   -2   -2   -2   16   16    0.000095    0.000000
   -2   -2   -1    1    1    0.001913   -0.000000
   -2   -2   -1    2    1   -0.000191   -0.000000
   -2   -2   -1    3    1    0.000110   -0.000000
   -2   -2   -1    4    1    0.000398    0.000000
   -2   -2   -1    5    1   -0.000690    0.000000
   -2   -2   -1    6    1   -0.000871    0.000000
   -2   -2   -1    7    1    0.000311    0.000000
   -2   -2   -1    8    1   -0.000179    0.000000
   -2   -2   -1    9    1   -0.000377    0.000000
   -2   -2   -1   10    1    0.000654    0.000000
   -2   -2   -1   11    1   -0.001813   -0.000000
   -2   -2   -1   12    1   -0.001007   -0.000000
   -2   -2   -1   13    1    0.002335   -0.000000
   -2   -2   -1   14    1   -0.000325   -0.000000
   -2   -2   -1   15    1   -0.000332   -0.000000
   -2   -2   -1   16    1    0.000079    0.000000
   -2   -2   -1    1    2   -0.000191   -0.000000
   -2   -2   -1    2    2   -0.000350    0.000000
   -2   -2   -1    3    2   -0.000193    0.000000
   -2   -2   -1    4    2    0.000070   -0.000000
   -2   -2   -1    5    2    0.000420   -0.000000
   -2   -2   -1    6    2   -0.000311   -0.000000
   -2   -2   -1    7    2   -0.000345   -0.000000
   -2   -2   -1    8    2   -0.000981   -0.000000
   -2   -2   -1    9    2   -0.001081   -0.000000
   -2   -2   -1   10    2    0.000307    0.000000
   -2   -2   -1   11    2   -0.004597    0.000000
   -2   -2   -1   12    2   -0.002500   -0.000000
   -2   -2   -1   13    2    0.003804    0.000000
   -2   -2   -1   14    2   -0.000848   -0.000000
   -2   -2   -1   15    2   -0.001173   -0.000000
   -2   -2   -1   16    2    0.000537    0.000001
   -2   -2   -1    1    3    0.000110   -0.000000
   -2   -2   -1    2    3   -0.000193    0.000000
   -2   -2   -1    3    3   -0.000573   -0.000000
   -2   -2   -1    4    3    0.000501    0.000000
   -2   -2   -1    5    3    0.000070    0.000000
   -2   -2   -1    6    3    0.000179   -0.000000
   -2   -2   -1    7    3   -0.000981   -0.000000
   -2   -2   -1    8    3   -0.001477    0.000000
   -2   -2   -1    9    3   -0.000941   -0.000000
   -2   -2   -1   10    3   -0.001081    0.000000
   -2   -2   -1   11    3   -0.005390    0.000000
   -2   -2   -1   12    3   -0.000897   -0.000000
   -2   -2   -1   13    3    0.003364    0.000000
   -2   -2   -1   14    3    0.000226    0.000000
   -2   -2   -1   15    3   -0.001727    0.000001
   -2   -2   -1   16    3    0.000178    0.000001
   -2   -2   -1    1    4    0.000398    0.000000
   -2   -2   -1    2    4    0.000070   -0.000000
   -2   -2   -1    3    4    0.000501    0.000000
   -2   -2   -1    4    4   -0.000912    0.000000
   -2   -2   -1    5    4   -0.000502   -0.000000
   -2   -2   -1    6    4   -0.000377    0.000000
   -2   -2   -1    7    4    0.001081    0.000000
   -2   -2   -1    8    4    0.000941    0.000000
   -2   -2   -1    9    4    0.000432    0.000000
   -2   -2   -1   10    4    0.000837   -0.000000
   -2   -2   -1   11    4    0.002519   -0.000000
   -2   -2   -1   12    4    0.002008    0.000000
   -2   -2   -1   13    4   -0.001324   -0.000000
   -2   -2   -1   14    4    0.000759   -0.000001
   -2   -2   -1   15    4    0.000615   -0.000000
   -2   -2   -1   16    4   -0.000142   -0.000000
   -2   -2   -1    1    5   -0.000690    0.000000
   -2   -2   -1    2    5    0.000420   -0.000000
   -2   -2   -1    3    5    0.000070    0.000000
   -2   -2   -1    4    5   -0.000502   -0.000000
   -2   -2   -1    5    5   -0.000333   -0.000000
   -2   -2   -1    6    5    0.000654    0.000000
   -2   -2   -1    7    5   -0.000307   -0.000000
   -2   -2   -1    8    5    0.001081   -0.000000
   -2   -2   -1    9    5    0.000837   -0.000000
   -2   -2   -1   10    5   -0.000535   -0.000000
   -2   -2   -1   11    5    0.005479   -0.000000
   -2   -2   -1   12    5    0.001527    0.000000
   -2   -2   -1   13    5   -0.004168   -0.000000
   -2   -2   -1   14    5    0.001135    0.000001
   -2   -2   -1   15    5    0.000886   -0.000000
   -2   -2   -1   16    5   -0.000113   -0.000000
   -2   -2   -1    1    6   -0.000702    0.000000
   -2   -2   -1    2    6    0.003105   -0.000000
   -2   -2   -1    3    6   -0.001793   -0.000000
   -2   -2   -1    4    6   -0.000149    0.000000
   -2   -2   -1    5    6    0.000258    0.000000
   -2   -2   -1    6    6    0.001913    0.000000
   -2   -2   -1    7    6    0.000191    0.000000
   -2   -2   -1    8    6   -0.000110    0.000000
   -2   -2   -1    9    6    0.000398    0.000000
   -2   -2   -1   10    6   -0.000690    0.000000
   -2   -2   -1   11    6    0.003728    0.000000
   -2   -2   -1   12    6    0.002598   -0.000000
   -2   -2   -1   13    6   -0.001502   -0.000000
   -2   -2   -1   14    6   -0.001814    0.000000
   -2   -2   -1   15    6    0.002526    0.000000
   -2   -2   -1   16    6    0.000296    0.000000
   -2   -2   -1    1    7   -0.003105    0.000000
   -2   -2   -1    2    7    0.001434   -0.000000
   -2   -2   -1    3    7   -0.003640   -0.000000
   -2   -2   -1    4    7   -0.000964    0.000000
   -2   -2   -1    5    7    0.003980   -0.000000
   -2   -2   -1    6    7    0.000191    0.000000
   -2   -2   -1    7    7   -0.000350    0.000000
   -2   -2   -1    8    7   -0.000193    0.000000
   -2   -2   -1    9    7   -0.000070    0.000000
   -2   -2   -1   10    7   -0.000420    0.000000
   -2   -2   -1   11    7   -0.001370    0.000000
   -2   -2   -1   12    7    0.000274    0.000000
   -2   -2   -1   13    7    0.000304   -0.000000
   -2   -2   -1   14    7   -0.002368   -0.000000
   -2   -2   -1   15    7    0.000638   -0.000000
   -2   -2   -1   16    7    0.000918   -0.000000
   -2   -2   -1    1    8    0.001793    0.000000
   -2   -2   -1    2    8   -0.003640   -0.000000
   -2   -2   -1    3    8   -0.002768    0.000000
   -2   -2   -1    4    8    0.002866    0.000000
   -2   -2   -1    5    8   -0.000964   -0.000000
   -2   -2   -1    6    8   -0.000110    0.000000
   -2   -2   -1    7    8   -0.000193    0.000000
   -2   -2   -1    8    8   -0.000573   -0.000000
   -2   -2   -1    9    8   -0.000501   -0.000000
   -2   -2   -1   10    8   -0.000070   -0.000000
   -2   -2   -1   11    8   -0.002672    0.000000
   -2   -2   -1   12    8    0.002910    0.000000
   -2   -2   -1   13    8   -0.001796   -0.000000
   -2   -2   -1   14    8   -0.006677   -0.000000
   -2   -2   -1   15    8    0.005618   -0.000000
   -2   -2   -1   16    8    0.000226    0.000000
   -2   -2   -1    1    9   -0.000149    0.000000
   -2   -2   -1    2    9    0.000964   -0.000000
   -2   -2   -1    3    9   -0.002866   -0.000000
   -2   -2   -1    4    9   -0.000554    0.000000
   -2   -2   -1    5    9    0.000783   -0.000000
   -2   -2   -1    6    9    0.000398    0.000000
   -2   -2   -1    7    9   -0.000070    0.000000
   -2   -2   -1    8    9   -0.000501   -0.000000
   -2   -2   -1    9    9   -0.000912    0.000000
   -2   -2   -1   10    9   -0.000502   -0.000000
   -2   -2   -1   11    9   -0.003852    0.000000
   -2   -2   -1   12    9    0.003108    0.000000
   -2   -2   -1   13    9    0.001341   -0.000000
   -2   -2   -1   14    9   -0.006005   -0.000000
   -2   -2   -1   15    9    0.004863   -0.000000
   -2   -2   -1   16    9    0.000122   -0.000000
   -2   -2   -1    1   10    0.000258    0.000000
   -2   -2   -1    2   10   -0.003980    0.000000
   -2   -2   -1    3   10    0.000964    0.000000
   -2   -2   -1    4   10    0.000783   -0.000000
   -2   -2   -1    5   10   -0.001458   -0.000000
   -2   -2   -1    6   10   -0.000690    0.000000
   -2   -2   -1    7   10   -0.000420    0.000000
   -2   -2   -1    8   10   -0.000070   -0.000000
   -2   -2   -1    9   10   -0.000502   -0.000000
   -2   -2   -1   10   10   -0.000333   -0.000000
   -2   -2   -1   11   10   -0.000325    0.000000
   -2   -2   -1   12   10   -0.002681    0.000000
   -2   -2   -1   13   10   -0.001119   -0.000000
   -2   -2   -1   14   10    0.000560   -0.000000
   -2   -2   -1   15   10   -0.000324   -0.000000
   -2   -2   -1   16   10   -0.001313   -0.000000
   -2   -2   -1    1   11   -0.003729    0.000000
   -2   -2   -1    2   11   -0.001371    0.000000
   -2   -2   -1    3   11   -0.002672    0.000000
   -2   -2   -1    4   11    0.003851   -0.000000
   -2   -2   -1    5   11    0.000327   -0.000000
   -2   -2   -1    6   11    0.001814   -0.000000
   -2   -2   -1    7   11   -0.004598    0.000000
   -2   -2   -1    8   11   -0.005390    0.000000
   -2   -2   -1    9   11   -0.002518    0.000000
   -2   -2   -1   10   11   -0.005481    0.000000
   -2   -2   -1   11   11   -0.005572    0.000000
   -2   -2   -1   12   11   -0.001427   -0.000000
   -2   -2   -1   13   11    0.000824    0.000000
   -2   -2   -1   14   11   -0.003060    0.000001
   -2   -2   -1   15   11    0.000156    0.000002
   -2   -2   -1   16   11   -0.000091   -0.000001
   -2   -2   -1    1   12    0.002597   -0.000000
   -2   -2   -1    2   12   -0.000275   -0.000000
   -2   -2   -1    3   12   -0.002909   -0.000000
   -2   -2   -1    4   12    0.003108    0.000000
   -2   -2   -1    5   12   -0.002682    0.000000
   -2   -2   -1    6   12   -0.001007   -0.000000
   -2   -2   -1    7   12    0.002501    0.000000
   -2   -2   -1    8   12    0.000895    0.000000
   -2   -2   -1    9   12    0.002008    0.000000
   -2   -2   -1   10   12    0.001527    0.000000
   -2   -2   -1   11   12    0.001427    0.000000
   -2   -2   -1   12   12    0.002311   -0.000000
   -2   -2   -1   13   12    0.000116   -0.000000
   -2   -2   -1   14   12    0.000156    0.000002
   -2   -2   -1   15   12    0.000979    0.000000
   -2   -2   -1   16   12   -0.001077    0.000001
   -2   -2   -1    1   13   -0.001502   -0.000000
   -2   -2   -1    2   13   -0.000302    0.000000
   -2   -2   -1    3   13    0.001797    0.000000
   -2   -2   -1    4   13    0.001340   -0.000000
   -2   -2   -1    5   13   -0.001119   -0.000000
   -2   -2   -1    6   13    0.002335   -0.000000
   -2   -2   -1    7   13   -0.003806   -0.000000
   -2   -2   -1    8   13   -0.003365   -0.000000
   -2   -2   -1    9   13   -0.001325   -0.000000
   -2   -2   -1   10   13   -0.004168   -0.000000
   -2   -2   -1   11   13   -0.000824   -0.000000
   -2   -2   -1   12   13    0.000116   -0.000000
   -2   -2   -1   13   13    0.002445    0.000001
   -2   -2   -1   14   13   -0.000091   -0.000001
   -2   -2   -1   15   13   -0.001077    0.000001
   -2   -2   -1   16   13   -0.000265    0.000000
   -2   -2   -1    1   14   -0.007147    0.000000
   -2   -2   -1    2   14   -0.002319    0.000001
   -2   -2   -1    3   14    0.005968   -0.000000
   -2   -2   -1    4   14   -0.015100    0.000001
   -2   -2   -1    5   14    0.002751   -0.000001
   -2   -2   -1    6   14   -0.003728   -0.000000
   -2   -2   -1    7   14   -0.001629   -0.000000
   -2   -2   -1    8   14   -0.002523   -0.000000
   -2   -2   -1    9   14   -0.002208   -0.000000
   -2   -2   -1   10   14   -0.003173   -0.000000
   -2   -2   -1   11   14    0.001847   -0.000001
   -2   -2   -1   12   14   -0.002224   -0.000001
   -2   -2   -1   13   14    0.001284    0.000001
   -2   -2   -1   14   14   -0.005572   -0.000000
   -2   -2   -1   15   14    0.001427    0.000000
   -2   -2   -1   16   14   -0.000824   -0.000000
   -2   -2   -1    1   15   -0.003824    0.000001
   -2   -2   -1    2   15   -0.002895    0.000000
   -2   -2   -1    3   15   -0.013587   -0.000001
   -2   -2   -1    4   15    0.004096    0.000000
   -2   -2   -1    5   15    0.006040    0.000000
   -2   -2   -1    6   15   -0.002600    0.000000
   -2   -2   -1    7   15    0.002670   -0.000000
   -2   -2   -1    8   15    0.001396   -0.000000
   -2   -2   -1    9   15   -0.000126   -0.000000
   -2   -2   -1   10   15    0.000526   -0.000000
   -2   -2   -1   11   15   -0.002224   -0.000001
   -2   -2   -1   12   15   -0.004591    0.000000
   -2   -2   -1   13   15   -0.008992   -0.000001
   -2   -2   -1   14   15   -0.001427   -0.000000
   -2   -2   -1   15   15    0.002311   -0.000001
   -2   -2   -1   16   15    0.000116   -0.000000
   -2   -2   -1    1   16   -0.022634   -0.000000
   -2   -2   -1    2   16    0.011552   -0.000001
   -2   -2   -1    3   16   -0.018372   -0.000001
   -2   -2   -1    4   16   -0.001281    0.000000
   -2   -2   -1    5   16    0.036595    0.000000
   -2   -2   -1    6   16    0.001499    0.000000
   -2   -2   -1    7   16   -0.001211    0.000000
   -2   -2   -1    8   16   -0.001148    0.000000
   -2   -2   -1    9   16    0.000814    0.000000
   -2   -2   -1   10   16   -0.004353   -0.000000
   -2   -2   -1   11   16    0.001284    0.000001
   -2   -2   -1   12   16   -0.008992   -0.000001
   -2   -2   -1   13   16   -0.014975   -0.000001
   -2   -2   -1   14   16    0.000824    0.000000
   -2   -2   -1   15   16    0.000116   -0.000000
   -2   -2   -1   16   16    0.002445    0.000000
   -2   -2    0    1    1   -0.004542   -0.000000
   -2   -2    0    2    1    0.003149    0.000000
   -2   -2    0    3    1   -0.001818    0.000000
   -2   -2    0    4    1   -0.001705    0.000000
   -2   -2    0    5    1    0.002954    0.000000
   -2   -2    0    6    1   -0.000702   -0.000000
   -2   -2    0    7    1   -0.003105    0.000000
   -2   -2    0    8    1    0.001793    0.000000
   -2   -2    0    9    1   -0.000149    0.000000
   -2   -2    0   10    1    0.000258    0.000000
   -2   -2    0   11    1    0.007147   -0.000000
   -2   -2    0   12    1   -0.017690   -0.000001
   -2   -2    0   13    1   -0.014629    0.000000
   -2   -2    0   14    1    0.003729   -0.000000
   -2   -2    0   15    1   -0.002599    0.000000
   -2   -2    0   16    1    0.001499    0.000000
   -2   -2    0    1    2    0.003149   -0.000000
   -2   -2    0    2    2   -0.006623    0.000000
   -2   -2    0    3    2    0.008832   -0.000000
   -2   -2    0    4    2   -0.001933    0.000000
   -2   -2    0    5    2   -0.004457    0.000000
   -2   -2    0    6    2    0.003105   -0.000000
   -2   -2    0    7    2    0.001434   -0.000000
   -2   -2    0    8    2   -0.003640   -0.000000
   -2   -2    0    9    2    0.000964   -0.000000
   -2   -2    0   10    2   -0.003980    0.000000
   -2   -2    0   11    2    0.006328   -0.000001
   -2   -2    0   12    2    0.013621   -0.000000
   -2   -2    0   13    2    0.019780    0.000001
   -2   -2    0   14    2   -0.001628   -0.000000
   -2   -2    0   15    2   -0.002669    0.000000
   -2   -2    0   16    2    0.001209    0.000000
   -2   -2    0    1    3   -0.001818   -0.000000
   -2   -2    0    2    3    0.008832    0.000000
   -2   -2    0    3    3    0.003574    0.000000
   -2   -2    0    4    3   -0.006688   -0.000000
   -2   -2    0    5    3   -0.001932    0.000000
   -2   -2    0    6    3   -0.001793   -0.000000
   -2   -2    0    7    3   -0.003640   -0.000000
   -2   -2    0    8    3   -0.002768    0.000000
   -2   -2    0    9    3   -0.002866   -0.000000
   -2   -2    0   10    3    0.000964    0.000000
   -2   -2    0   11    3    0.000976    0.000000
   -2   -2    0   12    3   -0.005360    0.000001
   -2   -2    0   13    3    0.007646    0.000001
   -2   -2    0   14    3   -0.002523   -0.000000
   -2   -2    0   15    3   -0.001398    0.000000
   -2   -2    0   16    3    0.001147   -0.000000
   -2   -2    0    1    4   -0.001705   -0.000000
   -2   -2    0    2    4   -0.001933   -0.000000
   -2   -2    0    3    4   -0.006688    0.000000
   -2   -2    0    4    4    0.007816    0.000000
   -2   -2    0    5    4    0.007342    0.000000
   -2   -2    0    6    4   -0.000149    0.000000
   -2   -2    0    7    4   -0.000964    0.000000
   -2   -2    0    8    4    0.002866    0.000000
   -2   -2    0    9    4   -0.000554    0.000000
   -2   -2    0   10    4    0.000783   -0.000000
   -2   -2    0   11    4   -0.005169   -0.000000
   -2   -2    0   12    4   -0.023252   -0.000000
   -2   -2    0   13    4   -0.021830   -0.000000
   -2   -2    0   14    4    0.002209    0.000000
   -2   -2    0   15    4   -0.000126   -0.000000
   -2   -2    0   16    4    0.000815   -0.000000
   -2   -2    0    1    5    0.002954   -0.000000
   -2   -2    0    2    5   -0.004457   -0.000000
   -2   -2    0    3    5   -0.001932   -0.000000
   -2   -2    0    4    5    0.007342   -0.000000
   -2   -2    0    5    5   -0.000662   -0.000000
   -2   -2    0    6    5    0.000258    0.000000
   -2   -2    0    7    5    0.003980   -0.000000
   -2   -2    0    8    5   -0.000964   -0.000000
   -2   -2    0    9    5    0.000783   -0.000000
   -2   -2    0   10    5   -0.001458   -0.000000
   -2   -2    0   11    5   -0.014453    0.000001
   -2   -2    0   12    5    0.017071   -0.000000
   -2   -2    0   13    5    0.009247    0.000000
   -2   -2    0   14    5    0.003171    0.000000
   -2   -2    0   15    5    0.000526   -0.000000
   -2   -2    0   16    5   -0.004353   -0.000000
   -2   -2    0    1    6   -0.000702    0.000000
   -2   -2    0    2    6    0.003105    0.000000
   -2   -2    0    3    6   -0.001793    0.000000
   -2   -2    0    4    6   -0.000149   -0.000000
   -2   -2    0    5    6    0.000258   -0.000000
   -2   -2    0    6    6   -0.004542   -0.000000
   -2   -2    0    7    6   -0.003149   -0.000000
   -2   -2    0    8    6    0.001818   -0.000000
   -2   -2    0    9    6   -0.001705   -0.000000
   -2   -2    0   10    6    0.002954   -0.000000
   -2   -2    0   11    6   -0.007147    0.000000
   -2   -2    0   12    6   -0.017690   -0.000000
   -2   -2    0   13    6   -0.014629    0.000000
   -2   -2    0   14    6    0.007147    0.000000
   -2   -2    0   15    6   -0.003824   -0.000000
   -2   -2    0   16    6   -0.022634    0.000000
   -2   -2    0    1    7   -0.003105   -0.000000
   -2   -2    0    2    7    0.001434    0.000000
   -2   -2    0    3    7   -0.003640    0.000000
   -2   -2    0    4    7   -0.000964   -0.000000
   -2   -2    0    5    7    0.003980    0.000000
   -2   -2    0    6    7   -0.003149    0.000000
   -2   -2    0    7    7   -0.006623   -0.000000
   -2   -2    0    8    7    0.008832    0.000000
   -2   -2    0    9    7    0.001933    0.000000
   -2   -2    0   10    7    0.004457   -0.000000
   -2   -2    0   11    7    0.006328   -0.000000
   -2   -2    0   12    7   -0.013621    0.000000
   -2   -2    0   13    7   -0.019780   -0.000001
   -2   -2    0   14    7   -0.002319   -0.000000
   -2   -2    0   15    7    0.002895    0.000000
   -2   -2    0   16    7   -0.011552   -0.000001
   -2   -2    0    1    8    0.001793   -0.000000
   -2   -2    0    2    8   -0.003640    0.000000
   -2   -2    0    3    8   -0.002768   -0.000000
   -2   -2    0    4    8    0.002866   -0.000000
   -2   -2    0    5    8   -0.000964    0.000000
   -2   -2    0    6    8    0.001818    0.000000
   -2   -2    0    7    8    0.008832   -0.000000
   -2   -2    0    8    8    0.003574    0.000000
   -2   -2    0    9    8    0.006688    0.000000
   -2   -2    0   10    8    0.001932    0.000000
   -2   -2    0   11    8    0.000976    0.000000
   -2   -2    0   12    8    0.005360   -0.000001
   -2   -2    0   13    8   -0.007646   -0.000001
   -2   -2    0   14    8    0.005968    0.000000
   -2   -2    0   15    8    0.013587   -0.000001
   -2   -2    0   16    8    0.018372   -0.000001
   -2   -2    0    1    9   -0.000149   -0.000000
   -2   -2    0    2    9    0.000964    0.000000
   -2   -2    0    3    9   -0.002866    0.000000
   -2   -2    0    4    9   -0.000554   -0.000000
   -2   -2    0    5    9    0.000783    0.000000
   -2   -2    0    6    9   -0.001705    0.000000
   -2   -2    0    7    9    0.001933   -0.000000
   -2   -2    0    8    9    0.006688   -0.000000
   -2   -2    0    9    9    0.007816   -0.000000
   -2   -2    0   10    9    0.007342    0.000000
   -2   -2    0   11    9    0.005169    0.000001
   -2   -2    0   12    9   -0.023252   -0.000000
   -2   -2    0   13    9   -0.021830   -0.000000
   -2   -2    0   14    9    0.015100    0.000001
   -2   -2    0   15    9    0.004096   -0.000000
   -2   -2    0   16    9   -0.001281   -0.000000
   -2   -2    0    1   10    0.000258   -0.000000
   -2   -2    0    2   10   -0.003980   -0.000000
   -2   -2    0    3   10    0.000964   -0.000000
   -2   -2    0    4   10    0.000783    0.000000
   -2   -2    0    5   10   -0.001458    0.000000
   -2   -2    0    6   10    0.002954    0.000000
   -2   -2    0    7   10    0.004457    0.000000
   -2   -2    0    8   10    0.001932   -0.000000
   -2   -2    0    9   10    0.007342   -0.000000
   -2   -2    0   10   10   -0.000662    0.000000
   -2   -2    0   11   10    0.014453   -0.000001
   -2   -2    0   12   10    0.017071   -0.000000
   -2   -2    0   13   10    0.009247   -0.000000
   -2   -2    0   14   10   -0.002751   -0.000001
   -2   -2    0   15   10    0.006040   -0.000000
   -2   -2    0   16   10    0.036595   -0.000000
   -2   -2    0    1   11    0.007147    0.000000
   -2   -2    0    2   11    0.006328    0.000001
   -2   -2    0    3   11    0.000976   -0.000000
   -2   -2    0    4   11   -0.005169    0.000000
   -2   -2    0    5   11   -0.014453   -0.000001
   -2   -2    0    6   11   -0.007147   -0.000000
   -2   -2    0    7   11    0.006328    0.000000
   -2   -2    0    8   11    0.000976   -0.000000
   -2   -2    0    9   11    0.005169   -0.000001
   -2   -2    0   10   11    0.014453    0.000001
   -2   -2    0   11   11   -0.017982    0.000000
   -2   -2    0   12   11   -0.000000    0.000000
   -2   -2    0   13   11    0.000000    0.000000
   -2   -2    0   14   11    0.001845    0.000001
   -2   -2    0   15   11    0.002222   -0.000002
   -2   -2    0   16   11   -0.001282    0.000001
   -2   -2    0    1   12   -0.017690    0.000001
   -2   -2    0    2   12    0.013621    0.000000
   -2   -2    0    3   12   -0.005360   -0.000001
   -2   -2    0    4   12   -0.023252    0.000000
   -2   -2    0    5   12    0.017071    0.000000
   -2   -2    0    6   12   -0.017690    0.000000
   -2   -2    0    7   12   -0.013621   -0.000000
   -2   -2    0    8   12    0.005360    0.000001
   -2   -2    0    9   12   -0.023252    0.000000
   -2   -2    0   10   12    0.017071    0.000000
   -2   -2    0   11   12   -0.000000   -0.000000
   -2   -2    0   12   12    0.021058   -0.000000
   -2   -2    0   13   12    0.060492   -0.000000
   -2   -2    0   14   12    0.002222   -0.000002
   -2   -2    0   15   12   -0.004590    0.000000
   -2   -2    0   16   12   -0.008994    0.000001
   -2   -2    0    1   13   -0.014629   -0.000000
   -2   -2    0    2   13    0.019780   -0.000001
   -2   -2    0    3   13    0.007646   -0.000001
   -2   -2    0    4   13   -0.021830    0.000000
   -2   -2    0    5   13    0.009247   -0.000000
   -2   -2    0    6   13   -0.014629   -0.000000
   -2   -2    0    7   13   -0.019780    0.000001
   -2   -2    0    8   13   -0.007646    0.000001
   -2   -2    0    9   13   -0.021830    0.000000
   -2   -2    0   10   13    0.009247    0.000000
   -2   -2    0   11   13    0.000000   -0.000000
   -2   -2    0   12   13    0.060492    0.000000
   -2   -2    0   13   13    0.090909   -0.000000
   -2   -2    0   14   13   -0.001282    0.000001
   -2   -2    0   15   13   -0.008994    0.000001
   -2   -2    0   16   13   -0.014976    0.000001
   -2   -2    0    1   14    0.003729    0.000000
   -2   -2    0    2   14   -0.001628    0.000000
   -2   -2    0    3   14   -0.002523    0.000000
   -2   -2    0    4   14    0.002209   -0.000000
   -2   -2    0    5   14    0.003171   -0.000000
   -2   -2    0    6   14    0.007147   -0.000000
   -2   -2    0    7   14   -0.002319    0.000000
   -2   -2    0    8   14    0.005968   -0.000000
   -2   -2    0    9   14    0.015100   -0.000001
   -2   -2    0   10   14   -0.002751    0.000001
   -2   -2    0   11   14    0.001845   -0.000001
   -2   -2    0   12   14    0.002222    0.000002
   -2   -2    0   13   14   -0.001282   -0.000001
   -2   -2    0   14   14   -0.017982    0.000000
   -2   -2    0   15   14    0.000000   -0.000000
   -2   -2    0   16   14    0.000000   -0.000000
   -2   -2    0    1   15   -0.002599   -0.000000
   -2   -2    0    2   15   -0.002669   -0.000000
   -2   -2    0    3   15   -0.001398   -0.000000
   -2   -2    0    4   15   -0.000126    0.000000
   -2   -2    0    5   15    0.000526    0.000000
   -2   -2    0    6   15   -0.003824    0.000000
   -2   -2    0    7   15    0.002895   -0.000000
   -2   -2    0    8   15    0.013587    0.000001
   -2   -2    0    9   15    0.004096    0.000000
   -2   -2    0   10   15    0.006040    0.000000
   -2   -2    0   11   15    0.002222    0.000002
   -2   -2    0   12   15   -0.004590   -0.000000
   -2   -2    0   13   15   -0.008994   -0.000001
   -2   -2    0   14   15    0.000000    0.000000
   -2   -2    0   15   15    0.021058   -0.000000
   -2   -2    0   16   15    0.060492   -0.000000
   -2   -2    0    1   16    0.001499   -0.000000
   -2   -2    0    2   16    0.001209   -0.000000
   -2   -2    0    3   16    0.001147    0.000000
   -2   -2    0    4   16    0.000815    0.000000
   -2   -2    0    5   16   -0.004353    0.000000
   -2   -2    0    6   16   -0.022634   -0.000000
   -2   -2    0    7   16   -0.011552    0.000001
   -2   -2    0    8   16    0.018372    0.000001
   -2   -2    0    9   16   -0.001281    0.000000
   -2   -2    0   10   16    0.036595    0.000000
   -2   -2    0   11   16   -0.001282   -0.000001
   -2   -2    0   12   16   -0.008994   -0.000001
   -2   -2    0   13   16   -0.014976   -0.000001
   -2   -2    0   14   16    0.000000    0.000000
   -2   -2    0   15   16    0.060492    0.000000
   -2   -2    0   16   16    0.090909   -0.000000
   -2   -2    1    1    1    0.001913    0.000000
   -2   -2    1    2    1   -0.000191    0.000000
   -2   -2    1    3    1    0.000110    0.000000
   -2   -2    1    4    1    0.000398   -0.000000
   -2   -2    1    5    1   -0.000690   -0.000000
   -2   -2    1    6    1   -0.000702   -0.000000
   -2   -2    1    7    1   -0.003105   -0.000000
   -2   -2    1    8    1    0.001793   -0.000000
   -2   -2    1    9    1   -0.000149   -0.000000
   -2   -2    1   10    1    0.000258   -0.000000
   -2   -2    1   11    1   -0.003729   -0.000000
   -2   -2    1   12    1    0.002597    0.000000
   -2   -2    1   13    1   -0.001502    0.000000
   -2   -2    1   14    1   -0.007147   -0.000000
   -2   -2    1   15    1   -0.003824   -0.000001
   -2   -2    1   16    1   -0.022634    0.000000
   -2   -2    1    1    2   -0.000191    0.000000
   -2   -2    1    2    2   -0.000350   -0.000000
   -2   -2    1    3    2   -0.000193   -0.000000
   -2   -2    1    4    2    0.000070    0.000000
   -2   -2    1    5    2    0.000420    0.000000
   -2   -2    1    6    2    0.003105    0.000000
   -2   -2    1    7    2    0.001434    0.000000
   -2   -2    1    8    2   -0.003640    0.000000
   -2   -2    1    9    2    0.000964    0.000000
   -2   -2    1   10    2   -0.003980   -0.000000
   -2   -2    1   11    2   -0.001371   -0.000000
   -2   -2    1   12    2   -0.000275    0.000000
   -2   -2    1   13    2   -0.000302   -0.000000
   -2   -2    1   14    2   -0.002319   -0.000001
   -2   -2    1   15    2   -0.002895   -0.000000
   -2   -2    1   16    2    0.011552    0.000001
   -2   -2    1    1    3    0.000110    0.000000
   -2   -2    1    2    3   -0.000193   -0.000000
   -2   -2    1    3    3   -0.000573    0.000000
   -2   -2    1    4    3    0.000501   -0.000000
   -2   -2    1    5    3    0.000070   -0.000000
   -2   -2    1    6    3   -0.001793    0.000000
   -2   -2    1    7    3   -0.003640    0.000000
   -2   -2    1    8    3   -0.002768   -0.000000
   -2   -2    1    9    3   -0.002866    0.000000
   -2   -2    1   10    3    0.000964   -0.000000
   -2   -2    1   11    3   -0.002672   -0.000000
   -2   -2    1   12    3   -0.002909    0.000000
   -2   -2    1   13    3    0.001797   -0.000000
   -2   -2    1   14    3    0.005968    0.000000
   -2   -2    1   15    3   -0.013587    0.000001
   -2   -2    1   16    3   -0.018372    0.000001
   -2   -2    1    1    4    0.000398   -0.000000
   -2   -2    1    2    4    0.000070    0.000000
   -2   -2    1    3    4    0.000501   -0.000000
   -2   -2    1    4    4   -0.000912   -0.000000
   -2   -2    1    5    4   -0.000502    0.000000
   -2   -2    1    6    4   -0.000149   -0.000000
   -2   -2    1    7    4   -0.000964   -0.000000
   -2   -2    1    8    4    0.002866   -0.000000
   -2   -2    1    9    4   -0.000554   -0.000000
   -2   -2    1   10    4    0.000783    0.000000
   -2   -2    1   11    4    0.003851    0.000000
   -2   -2    1   12    4    0.003108   -0.000000
   -2   -2    1   13    4    0.001340    0.000000
   -2   -2    1   14    4   -0.015100   -0.000001
   -2   -2    1   15    4    0.004096   -0.000000
   -2   -2    1   16    4   -0.001281   -0.000000
   -2   -2    1    1    5   -0.000690   -0.000000
   -2   -2    1    2    5    0.000420    0.000000
   -2   -2    1    3    5    0.000070   -0.000000
   -2   -2    1    4    5   -0.000502    0.000000
   -2   -2    1    5    5   -0.000333    0.000000
   -2   -2    1    6    5    0.000258   -0.000000
   -2   -2    1    7    5    0.003980    0.000000
   -2   -2    1    8    5   -0.000964    0.000000
   -2   -2    1    9    5    0.000783    0.000000
   -2   -2    1   10    5   -0.001458    0.000000
   -2   -2    1   11    5    0.000327    0.000000
   -2   -2    1   12    5   -0.002682   -0.000000
   -2   -2    1   13    5   -0.001119    0.000000
   -2   -2    1   14    5    0.002751    0.000001
   -2   -2    1   15    5    0.006040   -0.000000
   -2   -2    1   16    5    0.036595   -0.000000
   -2   -2    1    1    6   -0.000871   -0.000000
   -2   -2    1    2    6   -0.000311    0.000000
   -2   -2    1    3    6    0.000179    0.000000
   -2   -2    1    4    6   -0.000377   -0.000000
   -2   -2    1    5    6    0.000654   -0.000000
   -2   -2    1    6    6    0.001913   -0.000000
   -2   -2    1    7    6    0.000191   -0.000000
   -2   -2    1    8    6   -0.000110   -0.000000
   -2   -2    1    9    6    0.000398   -0.000000
   -2   -2    1   10    6   -0.000690   -0.000000
   -2   -2    1   11    6    0.001814    0.000000
   -2   -2    1   12    6   -0.001007    0.000000
   -2   -2    1   13    6    0.002335    0.000000
   -2   -2    1   14    6   -0.003728    0.000000
   -2   -2    1   15    6   -0.002600   -0.000000
   -2   -2    1   16    6    0.001499   -0.000000
   -2   -2    1    1    7    0.000311   -0.000000
   -2   -2    1    2    7   -0.000345    0.000000
   -2   -2    1    3    7   -0.000981    0.000000
   -2   -2    1    4    7    0.001081   -0.000000
   -2   -2    1    5    7   -0.000307    0.000000
   -2   -2    1    6    7    0.000191   -0.000000
   -2   -2    1    7    7   -0.000350   -0.000000
   -2   -2    1    8    7   -0.000193   -0.000000
   -2   -2    1    9    7   -0.000070   -0.000000
   -2   -2    1   10    7   -0.000420   -0.000000
   -2   -2    1   11    7   -0.004598   -0.000000
   -2   -2    1   12    7    0.002501   -0.000000
   -2   -2    1   13    7   -0.003806    0.000000
   -2   -2    1   14    7   -0.001629    0.000000
   -2   -2    1   15    7    0.002670    0.000000
   -2   -2    1   16    7   -0.001211   -0.000000
   -2   -2    1    1    8   -0.000179   -0.000000
   -2   -2    1    2    8   -0.000981    0.000000
   -2   -2    1    3    8   -0.001477   -0.000000
   -2   -2    1    4    8    0.000941   -0.000000
   -2   -2    1    5    8    0.001081    0.000000
   -2   -2    1    6    8   -0.000110   -0.000000
   -2   -2    1    7    8   -0.000193   -0.000000
   -2   -2    1    8    8   -0.000573    0.000000
   -2   -2    1    9    8   -0.000501    0.000000
   -2   -2    1   10    8   -0.000070    0.000000
   -2   -2    1   11    8   -0.005390   -0.000000
   -2   -2    1   12    8    0.000895   -0.000000
   -2   -2    1   13    8   -0.003365    0.000000
   -2   -2    1   14    8   -0.002523    0.000000
   -2   -2    1   15    8    0.001396    0.000000
   -2   -2    1   16    8   -0.001148   -0.000000
   -2   -2    1    1    9   -0.000377   -0.000000
   -2   -2    1    2    9   -0.001081    0.000000
   -2   -2    1    3    9   -0.000941    0.000000
   -2   -2    1    4    9    0.000432   -0.000000
   -2   -2    1    5    9    0.000837    0.000000
   -2   -2    1    6    9    0.000398   -0.000000
   -2   -2    1    7    9   -0.000070   -0.000000
   -2   -2    1    8    9   -0.000501    0.000000
   -2   -2    1    9    9   -0.000912   -0.000000
   -2   -2    1   10    9   -0.000502    0.000000
   -2   -2    1   11    9   -0.002518   -0.000000
   -2   -2    1   12    9    0.002008   -0.000000
   -2   -2    1   13    9   -0.001325    0.000000
   -2   -2    1   14    9   -0.002208    0.000000
   -2   -2    1   15    9   -0.000126    0.000000
   -2   -2    1   16    9    0.000814   -0.000000
   -2   -2    1    1   10    0.000654   -0.000000
   -2   -2    1    2   10    0.000307   -0.000000
   -2   -2    1    3   10   -0.001081   -0.000000
   -2   -2    1    4   10    0.000837    0.000000
   -2   -2    1    5   10   -0.000535    0.000000
   -2   -2    1    6   10   -0.000690   -0.000000
   -2   -2    1    7   10   -0.000420   -0.000000
   -2   -2    1    8   10   -0.000070    0.000000
   -2   -2    1    9   10   -0.000502    0.000000
   -2   -2    1   10   10   -0.000333    0.000000
   -2   -2    1   11   10   -0.005481   -0.000000
   -2   -2    1   12   10    0.001527   -0.000000
   -2   -2    1   13   10   -0.004168    0.000000
   -2   -2    1   14   10   -0.003173    0.000000
   -2   -2    1   15   10    0.000526    0.000000
   -2   -2    1   16   10   -0.004353    0.000000
   -2   -2    1    1   11   -0.001813    0.000000
   -2   -2    1    2   11   -0.004597   -0.000000
   -2   -2    1    3   11   -0.005390   -0.000000
   -2   -2    1    4   11    0.002519    0.000000
   -2   -2    1    5   11    0.005479    0.000000
   -2   -2    1    6   11    0.003728   -0.000000
   -2   -2    1    7   11   -0.001370   -0.000000
   -2   -2    1    8   11   -0.002672   -0.000000
   -2   -2    1    9   11   -0.003852   -0.000000
   -2   -2    1   10   11   -0.000325   -0.000000
   -2   -2    1   11   11   -0.005572   -0.000000
   -2   -2    1   12   11    0.001427   -0.000000
   -2   -2    1   13   11   -0.000824    0.000000
   -2   -2    1   14   11    0.001847    0.000001
   -2   -2    1   15   11   -0.002224    0.000001
   -2   -2    1   16   11    0.001284   -0.000001
   -2   -2    1    1   12   -0.001007    0.000000
   -2   -2    1    2   12   -0.002500    0.000000
   -2   -2    1    3   12   -0.000897    0.000000
   -2   -2    1    4   12    0.002008   -0.000000
   -2   -2    1    5   12    0.001527   -0.000000
   -2   -2    1    6   12    0.002598    0.000000
   -2   -2    1    7   12    0.000274   -0.000000
   -2   -2    1    8   12    0.002910   -0.000000
   -2   -2    1    9   12    0.003108   -0.000000
   -2   -2    1   10   12   -0.002681   -0.000000
   -2   -2    1   11   12   -0.001427    0.000000
   -2   -2    1   12   12    0.002311    0.000000
   -2   -2    1   13   12    0.000116    0.000000
   -2   -2    1   14   12   -0.002224    0.000001
   -2   -2    1   15   12   -0.004591   -0.000000
   -2   -2    1   16   12   -0.008992    0.000001
   -2   -2    1    1   13    0.002335    0.000000
   -2   -2    1    2   13    0.003804   -0.000000
   -2   -2    1    3   13    0.003364   -0.000000
   -2   -2    1    4   13   -0.001324    0.000000
   -2   -2    1    5   13   -0.004168    0.000000
   -2   -2    1    6   13   -0.001502    0.000000
   -2   -2    1    7   13    0.000304    0.000000
   -2   -2    1    8   13   -0.001796    0.000000
   -2   -2    1    9   13    0.001341    0.000000
   -2   -2    1   10   13   -0.001119    0.000000
   -2   -2    1   11   13    0.000824   -0.000000
   -2   -2    1   12   13    0.000116    0.000000
   -2   -2    1   13   13    0.002445   -0.000001
   -2   -2    1   14   13    0.001284   -0.000001
   -2   -2    1   15   13   -0.008992    0.000001
   -2   -2    1   16   13   -0.014975    0.000001
   -2   -2    1    1   14   -0.000325    0.000000
   -2   -2    1    2   14   -0.000848    0.000000
   -2   -2    1    3   14    0.000226   -0.000000
   -2   -2    1    4   14    0.000759    0.000001
   -2   -2    1    5   14    0.001135   -0.000001
   -2   -2    1    6   14   -0.001814   -0.000000
   -2   -2    1    7   14   -0.002368    0.000000
   -2   -2    1    8   14   -0.006677    0.000000
   -2   -2    1    9   14   -0.006005    0.000000
   -2   -2    1   10   14    0.000560    0.000000
   -2   -2    1   11   14   -0.003060   -0.000001
   -2   -2    1   12   14    0.000156   -0.000002
   -2   -2    1   13   14   -0.000091    0.000001
   -2   -2    1   14   14   -0.005572    0.000000
   -2   -2    1   15   14   -0.001427    0.000000
   -2   -2    1   16   14    0.000824   -0.000000
   -2   -2    1    1   15   -0.000332    0.000000
   -2   -2    1    2   15   -0.001173    0.000000
   -2   -2    1    3   15   -0.001727   -0.000001
   -2   -2    1    4   15    0.000615    0.000000
   -2   -2    1    5   15    0.000886    0.000000
   -2   -2    1    6   15    0.002526   -0.000000
   -2   -2    1    7   15    0.000638    0.000000
   -2   -2    1    8   15    0.005618    0.000000
   -2   -2    1    9   15    0.004863    0.000000
   -2   -2    1   10   15   -0.000324    0.000000
   -2   -2    1   11   15    0.000156   -0.000002
   -2   -2    1   12   15    0.000979   -0.000000
   -2   -2    1   13   15   -0.001077   -0.000001
   -2   -2    1   14   15    0.001427   -0.000000
   -2   -2    1   15   15    0.002311    0.000001
   -2   -2    1   16   15    0.000116    0.000000
   -2   -2    1    1   16    0.000079   -0.000000
   -2   -2    1    2   16    0.000537   -0.000001
   -2   -2    1    3   16    0.000178   -0.000001
   -2   -2    1    4   16   -0.000142    0.000000
   -2   -2    1    5   16   -0.000113    0.000000
   -2   -2    1    6   16    0.000296   -0.000000
   -2   -2    1    7   16    0.000918    0.000000
   -2   -2    1    8   16    0.000226   -0.000000
   -2   -2    1    9   16    0.000122    0.000000
   -2   -2    1   10   16   -0.001313    0.000000
   -2   -2    1   11   16   -0.000091    0.000001
   -2   -2    1   12   16   -0.001077   -0.000001
   -2   -2    1   13   16   -0.000265   -0.000000
   -2   -2    1   14   16   -0.000824    0.000000
   -2   -2    1   15   16    0.000116    0.000000
   -2   -2    1   16   16    0.002445   -0.000000
   -2   -2    2    1    1    0.000257    0.000000
   -2   -2    2    2    1   -0.000185    0.000000
   -2   -2    2    3    1    0.000107    0.000000
   -2   -2    2    4    1   -0.000110   -0.000000
   -2   -2    2    5    1    0.000191    0.000000
   -2   -2    2    6    1   -0.000871    0.000000
   -2   -2    2    7    1    0.000311   -0.000000
   -2   -2    2    8    1   -0.000179   -0.000000
   -2   -2    2    9    1   -0.000377   -0.000000
   -2   -2    2   10    1    0.000654   -0.000000
   -2   -2    2   11    1    0.000325   -0.000000
   -2   -2    2   12    1    0.000235   -0.000000
   -2   -2    2   13    1   -0.000249    0.000000
   -2   -2    2   14    1    0.001813   -0.000000
   -2   -2    2   15    1    0.002526   -0.000000
   -2   -2    2   16    1    0.000296   -0.000000
   -2   -2    2    1    2   -0.000185   -0.000000
   -2   -2    2    2    2    0.000014    0.000000
   -2   -2    2    3    2    0.000868   -0.000000
   -2   -2    2    4    2   -0.000335    0.000000
   -2   -2    2    5    2    0.000029    0.000000
   -2   -2    2    6    2   -0.000311    0.000000
   -2   -2    2    7    2   -0.000345    0.000000
   -2   -2    2    8    2   -0.000981    0.000000
   -2   -2    2    9    2   -0.001081    0.000000
   -2   -2    2   10    2    0.000307   -0.000000
   -2   -2    2   11    2    0.000620   -0.000000
   -2   -2    2   12    2   -0.000357   -0.000000
   -2   -2    2   13    2    0.000844    0.000001
   -2   -2    2   14    2   -0.002369    0.000000
   -2   -2    2   15    2   -0.000639   -0.000000
   -2   -2    2   16    2   -0.000916    0.000000
   -2   -2    2    1    3    0.000107   -0.000000
   -2   -2    2    2    3    0.000868    0.000000
   -2   -2    2    3    3    0.001014    0.000000
   -2   -2    2    4    3   -0.000357   -0.000000
   -2   -2    2    5    3   -0.000335    0.000000
   -2   -2    2    6    3    0.000179    0.000000
   -2   -2    2    7    3   -0.000981    0.000000
   -2   -2    2    8    3   -0.001477   -0.000000
   -2   -2    2    9    3   -0.000941    0.000000
   -2   -2    2   10    3   -0.001081   -0.000000
   -2   -2    2   11    3   -0.000621    0.000000
   -2   -2    2   12    3   -0.001420    0.000001
   -2   -2    2   13    3    0.001351    0.000001
   -2   -2    2   14    3   -0.006676    0.000000
   -2   -2    2   15    3   -0.005616   -0.000000
   -2   -2    2   16    3   -0.000224    0.000000
   -2   -2    2    1    4   -0.000110    0.000000
   -2   -2    2    2    4   -0.000335   -0.000000
   -2   -2    2    3    4   -0.000357    0.000000
   -2   -2    2    4    4    0.000032   -0.000000
   -2   -2    2    5    4   -0.000057    0.000000
   -2   -2    2    6    4   -0.000377   -0.000000
   -2   -2    2    7    4    0.001081   -0.000000
   -2   -2    2    8    4    0.000941   -0.000000
   -2   -2    2    9    4    0.000432   -0.000000
   -2   -2    2   10    4    0.000837    0.000000
   -2   -2    2   11    4    0.001361   -0.000001
   -2   -2    2   12    4    0.000684   -0.000000
   -2   -2    2   13    4   -0.000847   -0.000000
   -2   -2    2   14    4    0.006004   -0.000000
   -2   -2    2   15    4    0.004863    0.000000
   -2   -2    2   16    4    0.000121   -0.000000
   -2   -2    2    1    5    0.000191   -0.000000
   -2   -2    2    2    5    0.000029   -0.000000
   -2   -2    2    3    5   -0.000335   -0.000000
   -2   -2    2    4    5   -0.000057   -0.000000
   -2   -2    2    5    5    0.000097    0.000000
   -2   -2    2    6    5    0.000654   -0.000000
   -2   -2    2    7    5   -0.000307    0.000000
   -2   -2    2    8    5    0.001081    0.000000
   -2   -2    2    9    5    0.000837    0.000000
   -2   -2    2   10    5   -0.000535    0.000000
   -2   -2    2   11    5    0.000089    0.000001
   -2   -2    2   12    5    0.000103   -0.000000
   -2   -2    2   13    5   -0.000045   -0.000000
   -2   -2    2   14    5   -0.000558   -0.000000
   -2   -2    2   15    5   -0.000324    0.000000
   -2   -2    2   16    5   -0.001313    0.000000
   -2   -2    2    1    6   -0.000871   -0.000000
   -2   -2    2    2    6   -0.000311   -0.000000
   -2   -2    2    3    6    0.000179   -0.000000
   -2   -2    2    4    6   -0.000377    0.000000
   -2   -2    2    5    6    0.000654    0.000000
   -2   -2    2    6    6    0.000257   -0.000000
   -2   -2    2    7    6    0.000185    0.000000
   -2   -2    2    8    6   -0.000107   -0.000000
   -2   -2    2    9    6   -0.000110   -0.000000
   -2   -2    2   10    6    0.000191   -0.000000
   -2   -2    2   11    6   -0.000325    0.000000
   -2   -2    2   12    6    0.000235   -0.000001
   -2   -2    2   13    6   -0.000249    0.000000
   -2   -2    2   14    6    0.000325    0.000000
   -2   -2    2   15    6   -0.000332   -0.000001
   -2   -2    2   16    6    0.000079    0.000000
   -2   -2    2    1    7    0.000311    0.000000
   -2   -2    2    2    7   -0.000345   -0.000000
   -2   -2    2    3    7   -0.000981   -0.000000
   -2   -2    2    4    7    0.001081    0.000000
   -2   -2    2    5    7   -0.000307   -0.000000
   -2   -2    2    6    7    0.000185   -0.000000
   -2   -2    2    7    7    0.000014    0.000000
   -2   -2    2    8    7    0.000868    0.000000
   -2   -2    2    9    7    0.000335   -0.000000
   -2   -2    2   10    7   -0.000029    0.000000
   -2   -2    2   11    7    0.000620   -0.000001
   -2   -2    2   12    7    0.000357    0.000000
   -2   -2    2   13    7   -0.000844   -0.000001
   -2   -2    2   14    7   -0.000848   -0.000001
   -2   -2    2   15    7    0.001173    0.000000
   -2   -2    2   16    7   -0.000537   -0.000001
   -2   -2    2    1    8   -0.000179    0.000000
   -2   -2    2    2    8   -0.000981   -0.000000
   -2   -2    2    3    8   -0.001477    0.000000
   -2   -2    2    4    8    0.000941    0.000000
   -2   -2    2    5    8    0.001081   -0.000000
   -2   -2    2    6    8   -0.000107    0.000000
   -2   -2    2    7    8    0.000868   -0.000000
   -2   -2    2    8    8    0.001014    0.000000
   -2   -2    2    9    8    0.000357    0.000000
   -2   -2    2   10    8    0.000335    0.000000
   -2   -2    2   11    8   -0.000621    0.000000
   -2   -2    2   12    8    0.001420   -0.000001
   -2   -2    2   13    8   -0.001351   -0.000001
   -2   -2    2   14    8    0.000226    0.000000
   -2   -2    2   15    8    0.001727   -0.000001
   -2   -2    2   16    8   -0.000179   -0.000001
   -2   -2    2    1    9   -0.000377    0.000000
   -2   -2    2    2    9   -0.001081   -0.000000
   -2   -2    2    3    9   -0.000941   -0.000000
   -2   -2    2    4    9    0.000432    0.000000
   -2   -2    2    5    9    0.000837   -0.000000
   -2   -2    2    6    9   -0.000110    0.000000
   -2   -2    2    7    9    0.000335    0.000000
   -2   -2    2    8    9    0.000357   -0.000000
   -2   -2    2    9    9    0.000032    0.000000
   -2   -2    2   10    9   -0.000057   -0.000000
   -2   -2    2   11    9   -0.001361    0.000000
   -2   -2    2   12    9    0.000684    0.000000
   -2   -2    2   13    9   -0.000847   -0.000000
   -2   -2    2   14    9   -0.000759    0.000001
   -2   -2    2   15    9    0.000615   -0.000000
   -2   -2    2   16    9   -0.000143   -0.000000
   -2   -2    2    1   10    0.000654    0.000000
   -2   -2    2    2   10    0.000307    0.000000
   -2   -2    2    3   10   -0.001081    0.000000
   -2   -2    2    4   10    0.000837   -0.000000
   -2   -2    2    5   10   -0.000535   -0.000000
   -2   -2    2    6   10    0.000191    0.000000
   -2   -2    2    7   10   -0.000029   -0.000000
   -2   -2    2    8   10    0.000335   -0.000000
   -2   -2    2    9   10   -0.000057    0.000000
   -2   -2    2   10   10    0.000097   -0.000000
   -2   -2    2   11   10   -0.000089   -0.000001
   -2   -2    2   12   10    0.000103   -0.000000
   -2   -2    2   13   10   -0.000045    0.000000
   -2   -2    2   14   10   -0.001135   -0.000001
   -2   -2    2   15   10    0.000886   -0.000000
   -2   -2    2   16   10   -0.000113   -0.000000
   -2   -2    2    1   11    0.000325    0.000000
   -2   -2    2    2   11    0.000620    0.000000
   -2   -2    2    3   11   -0.000621   -0.000000
   -2   -2    2    4   11    0.001361    0.000001
   -2   -2    2    5   11    0.000089   -0.000001
   -2   -2    2    6   11   -0.000325   -0.000000
   -2   -2    2    7   11    0.000620    0.000001
   -2   -2    2    8   11   -0.000621   -0.000000
   -2   -2    2    9   11   -0.001361   -0.000000
   -2   -2    2   10   11   -0.000089    0.000001
   -2   -2    2   11   11   -0.000399    0.000000
   -2   -2    2   12   11   -0.000000   -0.000000
   -2   -2    2   13   11    0.000000   -0.000000
   -2   -2    2   14   11   -0.003058    0.000001
   -2   -2    2   15   11   -0.000153   -0.000001
   -2   -2    2   16   11    0.000089    0.000001
   -2   -2    2    1   12    0.000235    0.000000
   -2   -2    2    2   12   -0.000357    0.000000
   -2   -2    2    3   12   -0.001420   -0.000001
   -2   -2    2    4   12    0.000684    0.000000
   -2   -2    2    5   12    0.000103    0.000000
   -2   -2    2    6   12    0.000235    0.000001
   -2   -2    2    7   12    0.000357   -0.000000
   -2   -2    2    8   12    0.001420    0.000001
   -2   -2    2    9   12    0.000684   -0.000000
   -2   -2    2   10   12    0.000103    0.000000
   -2   -2    2   11   12   -0.000000    0.000000
   -2   -2    2   12   12   -0.000211   -0.000000
   -2   -2    2   13   12    0.000263   -0.000000
   -2   -2    2   14   12   -0.000153   -0.000001
   -2   -2    2   15   12    0.000979   -0.000000
   -2   -2    2   16   12   -0.001076    0.000001
   -2   -2    2    1   13   -0.000249   -0.000000
   -2   -2    2    2   13    0.000844   -0.000001
   -2   -2    2    3   13    0.001351   -0.000001
   -2   -2    2    4   13   -0.000847    0.000000
   -2   -2    2    5   13   -0.000045    0.000000
   -2   -2    2    6   13   -0.000249   -0.000000
   -2   -2    2    7   13   -0.000844    0.000001
   -2   -2    2    8   13   -0.001351    0.000001
   -2   -2    2    9   13   -0.000847    0.000000
   -2   -2    2   10   13   -0.000045   -0.000000
   -2   -2    2   11   13    0.000000    0.000000
   -2   -2    2   12   13    0.000263    0.000000
   -2   -2    2   13   13    0.000095   -0.000000
   -2   -2    2   14   13    0.000089    0.000001
   -2   -2    2   15   13   -0.001076    0.000001
   -2   -2    2   16   13   -0.000264    0.000001
   -2   -2    2    1   14    0.001813    0.000000
   -2   -2    2    2   14   -0.002369   -0.000000
   -2   -2    2    3   14   -0.006676   -0.000000
   -2   -2    2    4   14    0.006004    0.000000
   -2   -2    2    5   14   -0.000558    0.000000
   -2   -2    2    6   14    0.000325   -0.000000
   -2   -2    2    7   14   -0.000848    0.000001
   -2   -2    2    8   14    0.000226   -0.000000
   -2   -2    2    9   14   -0.000759   -0.000001
   -2   -2    2   10   14   -0.001135    0.000001
   -2   -2    2   11   14   -0.003058   -0.000001
   -2   -2    2   12   14   -0.000153    0.000001
   -2   -2    2   13   14    0.000089   -0.000001
   -2   -2    2   14   14   -0.000399    0.000000
   -2   -2    2   15   14    0.000000    0.000000
   -2   -2    2   16   14   -0.000000    0.000000
   -2   -2    2    1   15    0.002526    0.000000
   -2   -2    2    2   15   -0.000639    0.000000
   -2   -2    2    3   15   -0.005616    0.000000
   -2   -2    2    4   15    0.004863   -0.000000
   -2   -2    2    5   15   -0.000324   -0.000000
   -2   -2    2    6   15   -0.000332    0.000001
   -2   -2    2    7   15    0.001173   -0.000000
   -2   -2    2    8   15    0.001727    0.000001
   -2   -2    2    9   15    0.000615    0.000000
   -2   -2    2   10   15    0.000886    0.000000
   -2   -2    2   11   15   -0.000153    0.000001
   -2   -2    2   12   15    0.000979    0.000000
   -2   -2    2   13   15   -0.001076   -0.000001
   -2   -2    2   14   15    0.000000   -0.000000
   -2   -2    2   15   15   -0.000211    0.000000
   -2   -2    2   16   15    0.000263   -0.000000
   -2   -2    2    1   16    0.000296    0.000000
   -2   -2    2    2   16   -0.000916   -0.000000
   -2   -2    2    3   16   -0.000224   -0.000000
   -2   -2    2    4   16    0.000121    0.000000
   -2   -2    2    5   16   -0.001313   -0.000000
   -2   -2    2    6   16    0.000079   -0.000000
   -2   -2    2    7   16   -0.000537    0.000001
   -2   -2    2    8   16   -0.000179    0.000001
   -2   -2    2    9   16   -0.000143    0.000000
   -2   -2    2   10   16   -0.000113    0.000000
   -2   -2    2   11   16    0.000089   -0.000001
   -2   -2    2   12   16   -0.001076   -0.000001
   -2   -2    2   13   16   -0.000264   -0.000001
   -2   -2    2   14   16   -0.000000   -0.000000
   -2   -2    2   15   16    0.000263    0.000000
   -2   -2    2   16   16    0.000095   -0.000000
   -2   -1   -2    1    1   -0.000043    0.000000
   -2   -1   -2    2    1    0.000264    0.000000
   -2   -1   -2    3    1    0.000152   -0.000000
   -2   -1   -2    4    1    0.000006    0.000000
   -2   -1   -2    5    1    0.000010   -0.000000
   -2   -1   -2    6    1    0.000242    0.000000
   -2   -1   -2    7    1    0.000225   -0.000000
   -2   -1   -2    8    1    0.000130    0.000000
   -2   -1   -2    9    1   -0.000100   -0.000000
   -2   -1   -2   10    1   -0.000173    0.000000
   -2   -1   -2   11    1    0.000006    0.000000
   -2   -1   -2   12    1   -0.000725    0.000000
   -2   -1   -2   13    1    0.000418   -0.000000
   -2   -1   -2   14    1   -0.003347    0.000000
   -2   -1   -2   15    1    0.000000    0.000000
   -2   -1   -2   16    1   -0.000000   -0.000000
   -2   -1   -2    1    2    0.000264    0.000000
   -2   -1   -2    2    2   -0.000304    0.000000
   -2   -1   -2    3    2   -0.000342   -0.000000
   -2   -1   -2    4    2    0.000158   -0.000000
   -2   -1   -2    5    2    0.000074    0.000000
   -2   -1   -2    6    2    0.000446    0.000000
   -2   -1   -2    7    2    0.000490    0.000000
   -2   -1   -2    8    2    0.000337   -0.000000
   -2   -1   -2    9    2   -0.000167   -0.000000
   -2   -1   -2   10    2   -0.000190    0.000000
   -2   -1   -2   11    2   -0.000263    0.000000
   -2   -1   -2   12    2   -0.000626    0.000000
   -2   -1   -2   13    2    0.000200   -0.000001
   -2   -1   -2   14    2    0.000000   -0.000000
   -2   -1   -2   15    2   -0.000452   -0.000000
   -2   -1   -2   16    2   -0.000001    0.000000
   -2   -1   -2    1    3    0.000152   -0.000000
   -2   -1   -2    2    3   -0.000342   -0.000000
   -2   -1   -2    3    3    0.000091   -0.000000
   -2   -1   -2    4    3   -0.000109   -0.000000
   -2   -1   -2    5    3    0.000158    0.000000
   -2   -1   -2    6    3    0.000258   -0.000000
   -2   -1   -2    7    3    0.000338    0.000000
   -2   -1   -2    8    3    0.000100   -0.000000
   -2   -1   -2    9    3    0.000003   -0.000000
   -2   -1   -2   10    3   -0.000167    0.000000
   -2   -1   -2   11    3    0.000152   -0.000000
   -2   -1   -2   12    3    0.000200   -0.000001
   -2   -1   -2   13    3   -0.000395   -0.000001
   -2   -1   -2   14    3   -0.000000    0.000000
   -2   -1   -2   15    3   -0.000001   -0.000000
   -2   -1   -2   16    3   -0.000453   -0.000000
   -2   -1   -2    1    4    0.000006    0.000000
   -2   -1   -2    2    4    0.000158   -0.000000
   -2   -1   -2    3    4   -0.000109    0.000000
   -2   -1   -2    4    4   -0.000022    0.000000
   -2   -1   -2    5    4   -0.000056    0.000000
   -2   -1   -2    6    4   -0.000145   -0.000000
   -2   -1   -2    7    4   -0.000645    0.000000
   -2   -1   -2    8    4    0.000363    0.000000
   -2   -1   -2    9    4    0.000056    0.000000
   -2   -1   -2   10    4   -0.000073   -0.000000
   -2   -1   -2   11    4    0.000665    0.000001
   -2   -1   -2   12    4   -0.000312    0.000000
   -2   -1   -2   13    4    0.000300    0.000000
   -2   -1   -2   14    4    0.000001   -0.000000
   -2   -1   -2   15    4   -0.000000   -0.000000
   -2   -1   -2   16    4   -0.001269    0.000000
   -2   -1   -2    1    5    0.000010   -0.000000
   -2   -1   -2    2    5    0.000074    0.000000
   -2   -1   -2    3    5    0.000158    0.000000
   -2   -1   -2    4    5   -0.000056    0.000000
   -2   -1   -2    5    5   -0.000087   -0.000000
   -2   -1   -2    6    5   -0.000251    0.000000
   -2   -1   -2    7    5   -0.000381   -0.000000
   -2   -1   -2    8    5   -0.000645   -0.000000
   -2   -1   -2    9    5   -0.000072    0.000000
   -2   -1   -2   10    5   -0.000027   -0.000000
   -2   -1   -2   11    5   -0.001153   -0.000001
   -2   -1   -2   12    5    0.000660    0.000000
   -2   -1   -2   13    5   -0.000312    0.000000
   -2   -1   -2   14    5   -0.000001    0.000000
   -2   -1   -2   15    5   -0.001269    0.000000
   -2   -1   -2   16    5    0.000000    0.000000
   -2   -1   -2    1    6    0.000242   -0.000000
   -2   -1   -2    2    6   -0.000225   -0.000000
   -2   -1   -2    3    6   -0.000130    0.000000
   -2   -1   -2    4    6   -0.000100    0.000000
   -2   -1   -2    5    6   -0.000173   -0.000000
   -2   -1   -2    6    6   -0.000043   -0.000000
   -2   -1   -2    7    6   -0.000264    0.000000
   -2   -1   -2    8    6   -0.000152   -0.000000
   -2   -1   -2    9    6    0.000006   -0.000000
   -2   -1   -2   10    6    0.000010    0.000000
   -2   -1   -2   11    6   -0.000005   -0.000000
   -2   -1   -2   12    6   -0.000725    0.000000
   -2   -1   -2   13    6    0.000418   -0.000000
   -2   -1   -2   14    6   -0.000882   -0.000000
   -2   -1   -2   15    6    0.000000    0.000000
   -2   -1   -2   16    6   -0.000000   -0.000000
   -2   -1   -2    1    7   -0.000446    0.000000
   -2   -1   -2    2    7    0.000490   -0.000000
   -2   -1   -2    3    7    0.000337    0.000000
   -2   -1   -2    4    7    0.000167   -0.000000
   -2   -1   -2    5    7    0.000190    0.000000
   -2   -1   -2    6    7   -0.000264    0.000000
   -2   -1   -2    7    7   -0.000304   -0.000000
   -2   -1   -2    8    7   -0.000342    0.000000
   -2   -1   -2    9    7   -0.000158   -0.000000
   -2   -1   -2   10    7   -0.000074    0.000000
   -2   -1   -2   11    7   -0.000263    0.000001
   -2   -1   -2   12    7    0.000626   -0.000000
   -2   -1   -2   13    7   -0.000200    0.000001
   -2   -1   -2   14    7   -0.000000    0.000001
   -2   -1   -2   15    7   -0.000256   -0.000000
   -2   -1   -2   16    7    0.000000    0.000001
   -2   -1   -2    1    8   -0.000258   -0.000000
   -2   -1   -2    2    8    0.000338   -0.000000
   -2   -1   -2    3    8    0.000100    0.000000
   -2   -1   -2    4    8   -0.000003   -0.000000
   -2   -1   -2    5    8    0.000167    0.000000
   -2   -1   -2    6    8   -0.000152   -0.000000
   -2   -1   -2    7    8   -0.000342    0.000000
   -2   -1   -2    8    8    0.000091    0.000000
   -2   -1   -2    9    8    0.000109    0.000000
   -2   -1   -2   10    8   -0.000158    0.000000
   -2   -1   -2   11    8    0.000152   -0.000000
   -2   -1   -2   12    8   -0.000200    0.000001
   -2   -1   -2   13    8    0.000395    0.000001
   -2   -1   -2   14    8    0.000000   -0.000000
   -2   -1   -2   15    8   -0.000000    0.000001
   -2   -1   -2   16    8   -0.000256    0.000001
   -2   -1   -2    1    9   -0.000145    0.000000
   -2   -1   -2    2    9    0.000645    0.000000
   -2   -1   -2    3    9   -0.000363    0.000000
   -2   -1   -2    4    9    0.000056   -0.000000
   -2   -1   -2    5    9   -0.000073    0.000000
   -2   -1   -2    6    9    0.000006   -0.000000
   -2   -1   -2    7    9   -0.000158   -0.000000
   -2   -1   -2    8    9    0.000109   -0.000000
   -2   -1   -2    9    9   -0.000022   -0.000000
   -2   -1   -2   10    9   -0.000056   -0.000000
   -2   -1   -2   11    9   -0.000665   -0.000000
   -2   -1   -2   12    9   -0.000312    0.000000
   -2   -1   -2   13    9    0.000300    0.000000
   -2   -1   -2   14    9    0.000000   -0.000001
   -2   -1   -2   15    9    0.000000    0.000000
   -2   -1   -2   16    9    0.000472    0.000000
   -2   -1   -2    1   10   -0.000251   -0.000000
   -2   -1   -2    2   10    0.000381   -0.000000
   -2   -1   -2    3   10    0.000645   -0.000000
   -2   -1   -2    4   10   -0.000072   -0.000000
   -2   -1   -2    5   10   -0.000027    0.000000
   -2   -1   -2    6   10    0.000010    0.000000
   -2   -1   -2    7   10   -0.000074    0.000000
   -2   -1   -2    8   10   -0.000158    0.000000
   -2   -1   -2    9   10   -0.000056   -0.000000
   -2   -1   -2   10   10   -0.000087    0.000000
   -2   -1   -2   11   10    0.001153    0.000001
   -2   -1   -2   12   10    0.000660    0.000000
   -2   -1   -2   13   10   -0.000312    0.000000
   -2   -1   -2   14   10   -0.000000    0.000001
   -2   -1   -2   15   10    0.000471    0.000000
   -2   -1   -2   16   10    0.000000   -0.000000
   -2   -1   -2    1   11    0.000325   -0.000000
   -2   -1   -2    2   11   -0.000228   -0.000000
   -2   -1   -2    3   11    0.000848    0.000000
   -2   -1   -2    4   11   -0.000603   -0.000001
   -2   -1   -2    5   11    0.001225    0.000001
   -2   -1   -2    6   11   -0.000325    0.000000
   -2   -1   -2    7   11   -0.000228   -0.000001
   -2   -1   -2    8   11    0.000848    0.000000
   -2   -1   -2    9   11    0.000603    0.000001
   -2   -1   -2   10   11   -0.001224   -0.000001
   -2   -1   -2   11   11    0.002333    0.000000
   -2   -1   -2   12   11   -0.000000   -0.000000
   -2   -1   -2   13   11    0.000000    0.000000
   -2   -1   -2   14   11   -0.003060   -0.000001
   -2   -1   -2   15   11   -0.000002    0.000001
   -2   -1   -2   16   11   -0.000178   -0.000001
   -2   -1   -2    1   12   -0.000098   -0.000000
   -2   -1   -2    2   12    0.000675   -0.000000
   -2   -1   -2    3   12    0.000249    0.000001
   -2   -1   -2    4   12    0.000206   -0.000000
   -2   -1   -2    5   12   -0.000332   -0.000000
   -2   -1   -2    6   12   -0.000098   -0.000001
   -2   -1   -2    7   12   -0.000675    0.000000
   -2   -1   -2    8   12   -0.000249   -0.000001
   -2   -1   -2    9   12    0.000206    0.000000
   -2   -1   -2   10   12   -0.000332   -0.000000
   -2   -1   -2   11   12    0.000000    0.000000
   -2   -1   -2   12   12    0.000792    0.000000
   -2   -1   -2   13   12   -0.000050   -0.000000
   -2   -1   -2   14   12   -0.000002    0.000001
   -2   -1   -2   15   12   -0.000886    0.000000
   -2   -1   -2   16   12   -0.000001   -0.000000
   -2   -1   -2    1   13    0.000327    0.000000
   -2   -1   -2    2   13   -0.002015    0.000001
   -2   -1   -2    3   13    0.000320    0.000001
   -2   -1   -2    4   13   -0.000411   -0.000000
   -2   -1   -2    5   13    0.000935   -0.000000
   -2   -1   -2    6   13    0.000327    0.000000
   -2   -1   -2    7   13    0.002015   -0.000001
   -2   -1   -2    8   13   -0.000320   -0.000001
   -2   -1   -2    9   13   -0.000411   -0.000000
   -2   -1   -2   10   13    0.000935   -0.000000
   -2   -1   -2   11   13   -0.000000   -0.000000
   -2   -1   -2   12   13   -0.000049   -0.000000
   -2   -1   -2   13   13    0.000849   -0.000000
   -2   -1   -2   14   13   -0.000178   -0.000001
   -2   -1   -2   15   13   -0.000001   -0.000000
   -2   -1   -2   16   13    0.001600   -0.000001
   -2   -1   -2    1   14   -0.000588   -0.000000
   -2   -1   -2    2   14    0.003470    0.000000
   -2   -1   -2    3   14    0.002003   -0.000000
   -2   -1   -2    4   14   -0.000091    0.000000
   -2   -1   -2    5   14   -0.000161   -0.000000
   -2   -1   -2    6   14   -0.000476    0.000000
   -2   -1   -2    7   14    0.000425   -0.000000
   -2   -1   -2    8   14    0.000246    0.000000
   -2   -1   -2    9   14   -0.000088    0.000000
   -2   -1   -2   10   14   -0.000152   -0.000001
   -2   -1   -2   11   14    0.003197    0.000001
   -2   -1   -2   12   14    0.004113   -0.000002
   -2   -1   -2   13   14   -0.000159    0.000001
   -2   -1   -2   14   14    0.002333   -0.000000
   -2   -1   -2   15   14    0.000000    0.000000
   -2   -1   -2   16   14    0.000000   -0.000000
   -2   -1   -2    1   15   -0.001457   -0.000000
   -2   -1   -2    2   15    0.003172   -0.000000
   -2   -1   -2    3   15    0.002014   -0.000000
   -2   -1   -2    4   15   -0.000028    0.000000
   -2   -1   -2    5   15    0.000067    0.000000
   -2   -1   -2    6   15    0.000415   -0.000000
   -2   -1   -2    7   15   -0.000081    0.000000
   -2   -1   -2    8   15    0.000073   -0.000001
   -2   -1   -2    9   15    0.000023   -0.000000
   -2   -1   -2   10   15   -0.000470   -0.000000
   -2   -1   -2   11   15    0.004113   -0.000002
   -2   -1   -2   12   15    0.002614   -0.000000
   -2   -1   -2   13   15    0.000074    0.000001
   -2   -1   -2   14   15    0.000000   -0.000000
   -2   -1   -2   15   15    0.000792   -0.000000
   -2   -1   -2   16   15   -0.000049    0.000000
   -2   -1   -2    1   16   -0.000842    0.000000
   -2   -1   -2    2   16    0.002015    0.000001
   -2   -1   -2    3   16    0.000844    0.000000
   -2   -1   -2    4   16    0.000100   -0.000000
   -2   -1   -2    5   16   -0.000028   -0.000000
   -2   -1   -2    6   16    0.000240    0.000000
   -2   -1   -2    7   16    0.000072   -0.000001
   -2   -1   -2    8   16   -0.000165   -0.000001
   -2   -1   -2    9   16   -0.000497   -0.000000
   -2   -1   -2   10   16    0.000023    0.000000
   -2   -1   -2   11   16   -0.000159    0.000001
   -2   -1   -2   12   16    0.000074    0.000001
   -2   -1   -2   13   16   -0.000334    0.000001
   -2   -1   -2   14   16   -0.000000    0.000000
   -2   -1   -2   15   16   -0.000050    0.000000
   -2   -1   -2   16   16    0.000849    0.000000
   -2   -1   -1    1    1   -0.001204    0.000000
   -2   -1   -1    2    1    0.000423   -0.000000
   -2   -1   -1    3    1    0.000244    0.000000
   -2   -1   -1    4    1    0.000142   -0.000000
   -2   -1   -1    5    1    0.000245    0.000000
   -2   -1   -1    6    1    0.000242   -0.000000
   -2   -1   -1    7    1   -0.000446    0.000000
   -2   -1   -1    8    1   -0.000258   -0.000000
   -2   -1   -1    9    1   -0.000145    0.000000
   -2   -1   -1   10    1   -0.000251   -0.000000
   -2   -1   -1   11    1    0.000837    0.000000
   -2   -1   -1   12    1    0.000156    0.000000
   -2   -1   -1   13    1   -0.000090   -0.000000
   -2   -1   -1   14    1    0.000882    0.000000
   -2   -1   -1   15    1   -0.000000    0.000000
   -2   -1   -1   16    1   -0.000000   -0.000000
   -2   -1   -1    1    2    0.000423   -0.000000
   -2   -1   -1    2    2    0.000720    0.000000
   -2   -1   -1    3    2   -0.000270   -0.000000
   -2   -1   -1    4    2    0.000407    0.000000
   -2   -1   -1    5    2   -0.000365   -0.000000
   -2   -1   -1    6    2   -0.000225   -0.000000
   -2   -1   -1    7    2    0.000490   -0.000000
   -2   -1   -1    8    2    0.000338   -0.000000
   -2   -1   -1    9    2    0.000645    0.000000
   -2   -1   -1   10    2    0.000381   -0.000000
   -2   -1   -1   11    2    0.000796   -0.000000
   -2   -1   -1   12    2    0.000214    0.000000
   -2   -1   -1   13    2    0.000508   -0.000000
   -2   -1   -1   14    2    0.000000    0.000001
   -2   -1   -1   15    2    0.000256    0.000000
   -2   -1   -1   16    2   -0.000000   -0.000001
   -2   -1   -1    1    3    0.000244    0.000000
   -2   -1   -1    2    3   -0.000270   -0.000000
   -2   -1   -1    3    3    0.001032   -0.000000
   -2   -1   -1    4    3   -0.000835    0.000000
   -2   -1   -1    5    3    0.000407   -0.000000
   -2   -1   -1    6    3   -0.000130    0.000000
   -2   -1   -1    7    3    0.000337    0.000000
   -2   -1   -1    8    3    0.000100    0.000000
   -2   -1   -1    9    3   -0.000363    0.000000
   -2   -1   -1   10    3    0.000645   -0.000000
   -2   -1   -1   11    3   -0.000460    0.000000
   -2   -1   -1   12    3    0.000508    0.000000
   -2   -1   -1   13    3    0.000800   -0.000000
   -2   -1   -1   14    3   -0.000000   -0.000000
   -2   -1   -1   15    3    0.000000   -0.000001
   -2   -1   -1   16    3    0.000256   -0.000001
   -2   -1   -1    1    4    0.000142   -0.000000
   -2   -1   -1    2    4    0.000407    0.000000
   -2   -1   -1    3    4   -0.000835    0.000000
   -2   -1   -1    4    4   -0.000654    0.000000
   -2   -1   -1    5    4    0.000001    0.000000
[...]
    2    2    1    2    8   -0.000981    0.000000
    2    2    1    3    8   -0.001477   -0.000000
    2    2    1    4    8    0.000941   -0.000000
    2    2    1    5    8    0.001081    0.000000
    2    2    1    6    8   -0.000110   -0.000000
    2    2    1    7    8   -0.000193   -0.000000
    2    2    1    8    8   -0.000573    0.000000
    2    2    1    9    8   -0.000501    0.000000
    2    2    1   10    8   -0.000070    0.000000
    2    2    1   11    8   -0.005390   -0.000000
    2    2    1   12    8    0.000895   -0.000000
    2    2    1   13    8   -0.003365    0.000000
    2    2    1   14    8   -0.002523    0.000000
    2    2    1   15    8    0.001396    0.000000
    2    2    1   16    8   -0.001148   -0.000000
    2    2    1    1    9   -0.000377   -0.000000
    2    2    1    2    9   -0.001081    0.000000
    2    2    1    3    9   -0.000941    0.000000
    2    2    1    4    9    0.000432   -0.000000
    2    2    1    5    9    0.000837    0.000000
    2    2    1    6    9    0.000398   -0.000000
    2    2    1    7    9   -0.000070   -0.000000
    2    2    1    8    9   -0.000501    0.000000
    2    2    1    9    9   -0.000912   -0.000000
    2    2    1   10    9   -0.000502    0.000000
    2    2    1   11    9   -0.002518   -0.000000
    2    2    1   12    9    0.002008   -0.000000
    2    2    1   13    9   -0.001325    0.000000
    2    2    1   14    9   -0.002208    0.000000
    2    2    1   15    9   -0.000126    0.000000
    2    2    1   16    9    0.000814   -0.000000
    2    2    1    1   10    0.000654   -0.000000
    2    2    1    2   10    0.000307   -0.000000
    2    2    1    3   10   -0.001081   -0.000000
    2    2    1    4   10    0.000837    0.000000
    2    2    1    5   10   -0.000535    0.000000
    2    2    1    6   10   -0.000690   -0.000000
    2    2    1    7   10   -0.000420   -0.000000
    2    2    1    8   10   -0.000070    0.000000
    2    2    1    9   10   -0.000502    0.000000
    2    2    1   10   10   -0.000333    0.000000
    2    2    1   11   10   -0.005481   -0.000000
    2    2    1   12   10    0.001527   -0.000000
    2    2    1   13   10   -0.004168    0.000000
    2    2    1   14   10   -0.003173    0.000000
    2    2    1   15   10    0.000526    0.000000
    2    2    1   16   10   -0.004353    0.000000
    2    2    1    1   11   -0.001813    0.000000
    2    2    1    2   11   -0.004597   -0.000000
    2    2    1    3   11   -0.005390   -0.000000
    2    2    1    4   11    0.002519    0.000000
    2    2    1    5   11    0.005479    0.000000
    2    2    1    6   11    0.003728   -0.000000
    2    2    1    7   11   -0.001370   -0.000000
    2    2    1    8   11   -0.002672   -0.000000
    2    2    1    9   11   -0.003852   -0.000000
    2    2    1   10   11   -0.000325   -0.000000
    2    2    1   11   11   -0.005572   -0.000000
    2    2    1   12   11    0.001427   -0.000000
    2    2    1   13   11   -0.000824    0.000000
    2    2    1   14   11    0.001847    0.000001
    2    2    1   15   11   -0.002224    0.000001
    2    2    1   16   11    0.001284   -0.000001
    2    2    1    1   12   -0.001007    0.000000
    2    2    1    2   12   -0.002500    0.000000
    2    2    1    3   12   -0.000897    0.000000
    2    2    1    4   12    0.002008   -0.000000
    2    2    1    5   12    0.001527   -0.000000
    2    2    1    6   12    0.002598    0.000000
    2    2    1    7   12    0.000274   -0.000000
    2    2    1    8   12    0.002910   -0.000000
    2    2    1    9   12    0.003108   -0.000000
    2    2    1   10   12   -0.002681   -0.000000
    2    2    1   11   12   -0.001427    0.000000
    2    2    1   12   12    0.002311    0.000000
    2    2    1   13   12    0.000116    0.000000
    2    2    1   14   12   -0.002224    0.000001
    2    2    1   15   12   -0.004591   -0.000000
    2    2    1   16   12   -0.008992    0.000001
    2    2    1    1   13    0.002335    0.000000
    2    2    1    2   13    0.003804   -0.000000
    2    2    1    3   13    0.003364   -0.000000
    2    2    1    4   13   -0.001324    0.000000
    2    2    1    5   13   -0.004168    0.000000
    2    2    1    6   13   -0.001502    0.000000
    2    2    1    7   13    0.000304    0.000000
    2    2    1    8   13   -0.001796    0.000000
    2    2    1    9   13    0.001341    0.000000
    2    2    1   10   13   -0.001119    0.000000
    2    2    1   11   13    0.000824   -0.000000
    2    2    1   12   13    0.000116    0.000000
    2    2    1   13   13    0.002445   -0.000001
    2    2    1   14   13    0.001284   -0.000001
    2    2    1   15   13   -0.008992    0.000001
    2    2    1   16   13   -0.014975    0.000001
    2    2    1    1   14   -0.000325    0.000000
    2    2    1    2   14   -0.000848    0.000000
    2    2    1    3   14    0.000226   -0.000000
    2    2    1    4   14    0.000759    0.000001
    2    2    1    5   14    0.001135   -0.000001
    2    2    1    6   14   -0.001814   -0.000000
    2    2    1    7   14   -0.002368    0.000000
    2    2    1    8   14   -0.006677    0.000000
    2    2    1    9   14   -0.006005    0.000000
    2    2    1   10   14    0.000560    0.000000
    2    2    1   11   14   -0.003060   -0.000001
    2    2    1   12   14    0.000156   -0.000002
    2    2    1   13   14   -0.000091    0.000001
    2    2    1   14   14   -0.005572    0.000000
    2    2    1   15   14   -0.001427    0.000000
    2    2    1   16   14    0.000824   -0.000000
    2    2    1    1   15   -0.000332    0.000000
    2    2    1    2   15   -0.001173    0.000000
    2    2    1    3   15   -0.001727   -0.000001
    2    2    1    4   15    0.000615    0.000000
    2    2    1    5   15    0.000886    0.000000
    2    2    1    6   15    0.002526   -0.000000
    2    2    1    7   15    0.000638    0.000000
    2    2    1    8   15    0.005618    0.000000
    2    2    1    9   15    0.004863    0.000000
    2    2    1   10   15   -0.000324    0.000000
    2    2    1   11   15    0.000156   -0.000002
    2    2    1   12   15    0.000979   -0.000000
    2    2    1   13   15   -0.001077   -0.000001
    2    2    1   14   15    0.001427   -0.000000
    2    2    1   15   15    0.002311    0.000001
    2    2    1   16   15    0.000116    0.000000
    2    2    1    1   16    0.000079   -0.000000
    2    2    1    2   16    0.000537   -0.000001
    2    2    1    3   16    0.000178   -0.000001
    2    2    1    4   16   -0.000142    0.000000
    2    2    1    5   16   -0.000113    0.000000
    2    2    1    6   16    0.000296   -0.000000
    2    2    1    7   16    0.000918    0.000000
    2    2    1    8   16    0.000226   -0.000000
    2    2    1    9   16    0.000122    0.000000
    2    2    1   10   16   -0.001313    0.000000
    2    2    1   11   16   -0.000091    0.000001
    2    2    1   12   16   -0.001077   -0.000001
    2    2    1   13   16   -0.000265   -0.000000
    2    2    1   14   16   -0.000824    0.000000
    2    2    1   15   16    0.000116    0.000000
    2    2    1   16   16    0.002445   -0.000000
    2    2    2    1    1    0.000257    0.000000
    2    2    2    2    1   -0.000185    0.000000
    2    2    2    3    1    0.000107    0.000000
    2    2    2    4    1   -0.000110   -0.000000
    2    2    2    5    1    0.000191    0.000000
    2    2    2    6    1   -0.000871    0.000000
    2    2    2    7    1    0.000311   -0.000000
    2    2    2    8    1   -0.000179   -0.000000
    2    2    2    9    1   -0.000377   -0.000000
    2    2    2   10    1    0.000654   -0.000000
    2    2    2   11    1    0.000325   -0.000000
    2    2    2   12    1    0.000235   -0.000000
    2    2    2   13    1   -0.000249    0.000000
    2    2    2   14    1    0.001813   -0.000000
    2    2    2   15    1    0.002526   -0.000000
    2    2    2   16    1    0.000296   -0.000000
    2    2    2    1    2   -0.000185   -0.000000
    2    2    2    2    2    0.000014    0.000000
    2    2    2    3    2    0.000868   -0.000000
    2    2    2    4    2   -0.000335    0.000000
    2    2    2    5    2    0.000029    0.000000
    2    2    2    6    2   -0.000311    0.000000
    2    2    2    7    2   -0.000345    0.000000
    2    2    2    8    2   -0.000981    0.000000
    2    2    2    9    2   -0.001081    0.000000
    2    2    2   10    2    0.000307   -0.000000
    2    2    2   11    2    0.000620   -0.000000
    2    2    2   12    2   -0.000357   -0.000000
    2    2    2   13    2    0.000844    0.000001
    2    2    2   14    2   -0.002369    0.000000
    2    2    2   15    2   -0.000639   -0.000000
    2    2    2   16    2   -0.000916    0.000000
    2    2    2    1    3    0.000107   -0.000000
    2    2    2    2    3    0.000868    0.000000
    2    2    2    3    3    0.001014    0.000000
    2    2    2    4    3   -0.000357   -0.000000
    2    2    2    5    3   -0.000335    0.000000
    2    2    2    6    3    0.000179    0.000000
    2    2    2    7    3   -0.000981    0.000000
    2    2    2    8    3   -0.001477   -0.000000
    2    2    2    9    3   -0.000941    0.000000
    2    2    2   10    3   -0.001081   -0.000000
    2    2    2   11    3   -0.000621    0.000000
    2    2    2   12    3   -0.001420    0.000001
    2    2    2   13    3    0.001351    0.000001
    2    2    2   14    3   -0.006676    0.000000
    2    2    2   15    3   -0.005616   -0.000000
    2    2    2   16    3   -0.000224    0.000000
    2    2    2    1    4   -0.000110    0.000000
    2    2    2    2    4   -0.000335   -0.000000
    2    2    2    3    4   -0.000357    0.000000
    2    2    2    4    4    0.000032   -0.000000
    2    2    2    5    4   -0.000057    0.000000
    2    2    2    6    4   -0.000377   -0.000000
    2    2    2    7    4    0.001081   -0.000000
    2    2    2    8    4    0.000941   -0.000000
    2    2    2    9    4    0.000432   -0.000000
    2    2    2   10    4    0.000837    0.000000
    2    2    2   11    4    0.001361   -0.000001
    2    2    2   12    4    0.000684   -0.000000
    2    2    2   13    4   -0.000847   -0.000000
    2    2    2   14    4    0.006004   -0.000000
    2    2    2   15    4    0.004863    0.000000
    2    2    2   16    4    0.000121   -0.000000
    2    2    2    1    5    0.000191   -0.000000
    2    2    2    2    5    0.000029   -0.000000
    2    2    2    3    5   -0.000335   -0.000000
    2    2    2    4    5   -0.000057   -0.000000
    2    2    2    5    5    0.000097    0.000000
    2    2    2    6    5    0.000654   -0.000000
    2    2    2    7    5   -0.000307    0.000000
    2    2    2    8    5    0.001081    0.000000
    2    2    2    9    5    0.000837    0.000000
    2    2    2   10    5   -0.000535    0.000000
    2    2    2   11    5    0.000089    0.000001
    2    2    2   12    5    0.000103   -0.000000
    2    2    2   13    5   -0.000045   -0.000000
    2    2    2   14    5   -0.000558   -0.000000
    2    2    2   15    5   -0.000324    0.000000
    2    2    2   16    5   -0.001313    0.000000
    2    2    2    1    6   -0.000871   -0.000000
    2    2    2    2    6   -0.000311   -0.000000
    2    2    2    3    6    0.000179   -0.000000
    2    2    2    4    6   -0.000377    0.000000
    2    2    2    5    6    0.000654    0.000000
    2    2    2    6    6    0.000257   -0.000000
    2    2    2    7    6    0.000185    0.000000
    2    2    2    8    6   -0.000107   -0.000000
    2    2    2    9    6   -0.000110   -0.000000
    2    2    2   10    6    0.000191   -0.000000
    2    2    2   11    6   -0.000325    0.000000
    2    2    2   12    6    0.000235   -0.000001
    2    2    2   13    6   -0.000249    0.000000
    2    2    2   14    6    0.000325    0.000000
    2    2    2   15    6   -0.000332   -0.000001
    2    2    2   16    6    0.000079    0.000000
    2    2    2    1    7    0.000311    0.000000
    2    2    2    2    7   -0.000345   -0.000000
    2    2    2    3    7   -0.000981   -0.000000
    2    2    2    4    7    0.001081    0.000000
    2    2    2    5    7   -0.000307   -0.000000
    2    2    2    6    7    0.000185   -0.000000
    2    2    2    7    7    0.000014    0.000000
    2    2    2    8    7    0.000868    0.000000
    2    2    2    9    7    0.000335   -0.000000
    2    2    2   10    7   -0.000029    0.000000
    2    2    2   11    7    0.000620   -0.000001
    2    2    2   12    7    0.000357    0.000000
    2    2    2   13    7   -0.000844   -0.000001
    2    2    2   14    7   -0.000848   -0.000001
    2    2    2   15    7    0.001173    0.000000
    2    2    2   16    7   -0.000537   -0.000001
    2    2    2    1    8   -0.000179    0.000000
    2    2    2    2    8   -0.000981   -0.000000
    2    2    2    3    8   -0.001477    0.000000
    2    2    2    4    8    0.000941    0.000000
    2    2    2    5    8    0.001081   -0.000000
    2    2    2    6    8   -0.000107    0.000000
    2    2    2    7    8    0.000868   -0.000000
    2    2    2    8    8    0.001014    0.000000
    2    2    2    9    8    0.000357    0.000000
    2    2    2   10    8    0.000335    0.000000
    2    2    2   11    8   -0.000621    0.000000
    2    2    2   12    8    0.001420   -0.000001
    2    2    2   13    8   -0.001351   -0.000001
    2    2    2   14    8    0.000226    0.000000
    2    2    2   15    8    0.001727   -0.000001
    2    2    2   16    8   -0.000179   -0.000001
    2    2    2    1    9   -0.000377    0.000000
    2    2    2    2    9   -0.001081   -0.000000
    2    2    2    3    9   -0.000941   -0.000000
    2    2    2    4    9    0.000432    0.000000
    2    2    2    5    9    0.000837   -0.000000
    2    2    2    6    9   -0.000110    0.000000
    2    2    2    7    9    0.000335    0.000000
    2    2    2    8    9    0.000357   -0.000000
    2    2    2    9    9    0.000032    0.000000
    2    2    2   10    9   -0.000057   -0.000000
    2    2    2   11    9   -0.001361    0.000000
    2    2    2   12    9    0.000684    0.000000
    2    2    2   13    9   -0.000847   -0.000000
    2    2    2   14    9   -0.000759    0.000001
    2    2    2   15    9    0.000615   -0.000000
    2    2    2   16    9   -0.000143   -0.000000
    2    2    2    1   10    0.000654    0.000000
    2    2    2    2   10    0.000307    0.000000
    2    2    2    3   10   -0.001081    0.000000
    2    2    2    4   10    0.000837   -0.000000
    2    2    2    5   10   -0.000535   -0.000000
    2    2    2    6   10    0.000191    0.000000
    2    2    2    7   10   -0.000029   -0.000000
    2    2    2    8   10    0.000335   -0.000000
    2    2    2    9   10   -0.000057    0.000000
    2    2    2   10   10    0.000097   -0.000000
    2    2    2   11   10   -0.000089   -0.000001
    2    2    2   12   10    0.000103   -0.000000
    2    2    2   13   10   -0.000045    0.000000
    2    2    2   14   10   -0.001135   -0.000001
    2    2    2   15   10    0.000886   -0.000000
    2    2    2   16   10   -0.000113   -0.000000
    2    2    2    1   11    0.000325    0.000000
    2    2    2    2   11    0.000620    0.000000
    2    2    2    3   11   -0.000621   -0.000000
    2    2    2    4   11    0.001361    0.000001
    2    2    2    5   11    0.000089   -0.000001
    2    2    2    6   11   -0.000325   -0.000000
    2    2    2    7   11    0.000620    0.000001
    2    2    2    8   11   -0.000621   -0.000000
    2    2    2    9   11   -0.001361   -0.000000
    2    2    2   10   11   -0.000089    0.000001
    2    2    2   11   11   -0.000399    0.000000
    2    2    2   12   11   -0.000000   -0.000000
    2    2    2   13   11    0.000000   -0.000000
    2    2    2   14   11   -0.003058    0.000001
    2    2    2   15   11   -0.000153   -0.000001
    2    2    2   16   11    0.000089    0.000001
    2    2    2    1   12    0.000235    0.000000
    2    2    2    2   12   -0.000357    0.000000
    2    2    2    3   12   -0.001420   -0.000001
    2    2    2    4   12    0.000684    0.000000
    2    2    2    5   12    0.000103    0.000000
    2    2    2    6   12    0.000235    0.000001
    2    2    2    7   12    0.000357   -0.000000
    2    2    2    8   12    0.001420    0.000001
    2    2    2    9   12    0.000684   -0.000000
    2    2    2   10   12    0.000103    0.000000
    2    2    2   11   12   -0.000000    0.000000
    2    2    2   12   12   -0.000211   -0.000000
    2    2    2   13   12    0.000263   -0.000000
    2    2    2   14   12   -0.000153   -0.000001
    2    2    2   15   12    0.000979   -0.000000
    2    2    2   16   12   -0.001076    0.000001
    2    2    2    1   13   -0.000249   -0.000000
    2    2    2    2   13    0.000844   -0.000001
    2    2    2    3   13    0.001351   -0.000001
    2    2    2    4   13   -0.000847    0.000000
    2    2    2    5   13   -0.000045    0.000000
    2    2    2    6   13   -0.000249   -0.000000
    2    2    2    7   13   -0.000844    0.000001
    2    2    2    8   13   -0.001351    0.000001
    2    2    2    9   13   -0.000847    0.000000
    2    2    2   10   13   -0.000045   -0.000000
    2    2    2   11   13    0.000000    0.000000
    2    2    2   12   13    0.000263    0.000000
    2    2    2   13   13    0.000095   -0.000000
    2    2    2   14   13    0.000089    0.000001
    2    2    2   15   13   -0.001076    0.000001
    2    2    2   16   13   -0.000264    0.000001
    2    2    2    1   14    0.001813    0.000000
    2    2    2    2   14   -0.002369   -0.000000
    2    2    2    3   14   -0.006676   -0.000000
    2    2    2    4   14    0.006004    0.000000
    2    2    2    5   14   -0.000558    0.000000
    2    2    2    6   14    0.000325   -0.000000
    2    2    2    7   14   -0.000848    0.000001
    2    2    2    8   14    0.000226   -0.000000
    2    2    2    9   14   -0.000759   -0.000001
    2    2    2   10   14   -0.001135    0.000001
    2    2    2   11   14   -0.003058   -0.000001
    2    2    2   12   14   -0.000153    0.000001
    2    2    2   13   14    0.000089   -0.000001
    2    2    2   14   14   -0.000399    0.000000
    2    2    2   15   14    0.000000    0.000000
    2    2    2   16   14   -0.000000    0.000000
    2    2    2    1   15    0.002526    0.000000
    2    2    2    2   15   -0.000639    0.000000
    2    2    2    3   15   -0.005616    0.000000
    2    2    2    4   15    0.004863   -0.000000
    2    2    2    5   15   -0.000324   -0.000000
    2    2    2    6   15   -0.000332    0.000001
    2    2    2    7   15    0.001173   -0.000000
    2    2    2    8   15    0.001727    0.000001
    2    2    2    9   15    0.000615    0.000000
    2    2    2   10   15    0.000886    0.000000
    2    2    2   11   15   -0.000153    0.000001
    2    2    2   12   15    0.000979    0.000000
    2    2    2   13   15   -0.001076   -0.000001
    2    2    2   14   15    0.000000   -0.000000
    2    2    2   15   15   -0.000211    0.000000
    2    2    2   16   15    0.000263   -0.000000
    2    2    2    1   16    0.000296    0.000000
    2    2    2    2   16   -0.000916   -0.000000
    2    2    2    3   16   -0.000224   -0.000000
    2    2    2    4   16    0.000121    0.000000
    2    2    2    5   16   -0.001313   -0.000000
    2    2    2    6   16    0.000079   -0.000000
    2    2    2    7   16   -0.000537    0.000001
    2    2    2    8   16   -0.000179    0.000001
    2    2    2    9   16   -0.000143    0.000000
    2    2    2   10   16   -0.000113    0.000000
    2    2    2   11   16    0.000089   -0.000001
    2    2    2   12   16   -0.001076   -0.000001
    2    2    2   13   16   -0.000264   -0.000001
    2    2    2   14   16   -0.000000   -0.000000
    2    2    2   15   16    0.000263    0.000000
    2    2    2   16   16    0.000095   -0.000000
